[ moleculetype ]
; Name            nrexcl
POPC              3

[ atoms ]
;   nr       type  resnr residue  atom   cgnr     charge       mass  typeB    chargeB      massB
; residue 345 POPC rtp POPC q  0.0
     1        NTL    345   POPC      N      1       -0.6     14.007
     2       CTL2    345   POPC    C12      1       -0.1     12.011
     3         HL    345   POPC   H12A      1       0.25      1.008
     4         HL    345   POPC   H12B      1       0.25      1.008
     5       CTL5    345   POPC    C13      1      -0.35     12.011
     6         HL    345   POPC   H13A      1       0.25      1.008
     7         HL    345   POPC   H13B      1       0.25      1.008
     8         HL    345   POPC   H13C      1       0.25      1.008
     9       CTL5    345   POPC    C14      1      -0.35     12.011
    10         HL    345   POPC   H14A      1       0.25      1.008
    11         HL    345   POPC   H14B      1       0.25      1.008
    12         HL    345   POPC   H14C      1       0.25      1.008
    13       CTL5    345   POPC    C15      1      -0.35     12.011
    14         HL    345   POPC   H15A      1       0.25      1.008
    15         HL    345   POPC   H15B      1       0.25      1.008
    16         HL    345   POPC   H15C      1       0.25      1.008
    17       CTL2    345   POPC    C11      2      -0.08     12.011
    18       HAL2    345   POPC   H11A      2       0.09      1.008
    19       HAL2    345   POPC   H11B      2       0.09      1.008
    20         PL    345   POPC      P      2        1.5     30.974
    21        O2L    345   POPC    O13      2      -0.78    15.9994
    22        O2L    345   POPC    O14      2      -0.78    15.9994
    23       OSLP    345   POPC    O12      2      -0.57    15.9994
    24       OSLP    345   POPC    O11      2      -0.57    15.9994
    25       CTL2    345   POPC     C1      2      -0.08     12.011
    26       HAL2    345   POPC     HA      2       0.09      1.008
    27       HAL2    345   POPC     HB      2       0.09      1.008
    28       CTL1    345   POPC     C2      3       0.17     12.011
    29       HAL1    345   POPC     HS      3       0.09      1.008
    30        OSL    345   POPC    O21      3      -0.49    15.9994
    31         CL    345   POPC    C21      3        0.9     12.011
    32        OBL    345   POPC    O22      3      -0.63    15.9994
    33       CTL2    345   POPC    C22      3      -0.22     12.011
    34       HAL2    345   POPC    H2R      3       0.09      1.008
    35       HAL2    345   POPC    H2S      3       0.09      1.008
    36       CTL2    345   POPC     C3      4       0.08     12.011
    37       HAL2    345   POPC     HX      4       0.09      1.008
    38       HAL2    345   POPC     HY      4       0.09      1.008
    39        OSL    345   POPC    O31      4      -0.49    15.9994
    40         CL    345   POPC    C31      4        0.9     12.011
    41        OBL    345   POPC    O32      4      -0.63    15.9994
    42       CTL2    345   POPC    C32      4      -0.22     12.011
    43       HAL2    345   POPC    H2X      4       0.09      1.008
    44       HAL2    345   POPC    H2Y      4       0.09      1.008
    45       CTL2    345   POPC    C23      5      -0.18     12.011
    46       HAL2    345   POPC    H3R      5       0.09      1.008
    47       HAL2    345   POPC    H3S      5       0.09      1.008
    48       CTL2    345   POPC    C24      6      -0.18     12.011
    49       HAL2    345   POPC    H4R      6       0.09      1.008
    50       HAL2    345   POPC    H4S      6       0.09      1.008
    51       CTL2    345   POPC    C25      7      -0.18     12.011
    52       HAL2    345   POPC    H5R      7       0.09      1.008
    53       HAL2    345   POPC    H5S      7       0.09      1.008
    54       CTL2    345   POPC    C26      8      -0.18     12.011
    55       HAL2    345   POPC    H6R      8       0.09      1.008
    56       HAL2    345   POPC    H6S      8       0.09      1.008
    57       CTL2    345   POPC    C27      9      -0.18     12.011
    58       HAL2    345   POPC    H7R      9       0.09      1.008
    59       HAL2    345   POPC    H7S      9       0.09      1.008
    60       CTL2    345   POPC    C28     10      -0.18     12.011
    61       HAL2    345   POPC    H8R     10       0.09      1.008
    62       HAL2    345   POPC    H8S     10       0.09      1.008
    63       CEL1    345   POPC    C29     11      -0.15     12.011
    64       HEL1    345   POPC    H91     11       0.15      1.008
    65       CEL1    345   POPC   C210     12      -0.15     12.011
    66       HEL1    345   POPC   H101     12       0.15      1.008
    67       CTL2    345   POPC   C211     13      -0.18     12.011
    68       HAL2    345   POPC   H11R     13       0.09      1.008
    69       HAL2    345   POPC   H11S     13       0.09      1.008
    70       CTL2    345   POPC   C212     14      -0.18     12.011
    71       HAL2    345   POPC   H12R     14       0.09      1.008
    72       HAL2    345   POPC   H12S     14       0.09      1.008
    73       CTL2    345   POPC   C213     15      -0.18     12.011
    74       HAL2    345   POPC   H13R     15       0.09      1.008
    75       HAL2    345   POPC   H13S     15       0.09      1.008
    76       CTL2    345   POPC   C214     16      -0.18     12.011
    77       HAL2    345   POPC   H14R     16       0.09      1.008
    78       HAL2    345   POPC   H14S     16       0.09      1.008
    79       CTL2    345   POPC   C215     17      -0.18     12.011
    80       HAL2    345   POPC   H15R     17       0.09      1.008
    81       HAL2    345   POPC   H15S     17       0.09      1.008
    82       CTL2    345   POPC   C216     18      -0.18     12.011
    83       HAL2    345   POPC   H16R     18       0.09      1.008
    84       HAL2    345   POPC   H16S     18       0.09      1.008
    85       CTL2    345   POPC   C217     19      -0.18     12.011
    86       HAL2    345   POPC   H17R     19       0.09      1.008
    87       HAL2    345   POPC   H17S     19       0.09      1.008
    88       CTL3    345   POPC   C218     20      -0.27     12.011
    89       HAL3    345   POPC   H18R     20       0.09      1.008
    90       HAL3    345   POPC   H18S     20       0.09      1.008
    91       HAL3    345   POPC   H18T     20       0.09      1.008
    92       CTL2    345   POPC    C33     21      -0.18     12.011
    93       HAL2    345   POPC    H3X     21       0.09      1.008
    94       HAL2    345   POPC    H3Y     21       0.09      1.008
    95       CTL2    345   POPC    C34     22      -0.18     12.011
    96       HAL2    345   POPC    H4X     22       0.09      1.008
    97       HAL2    345   POPC    H4Y     22       0.09      1.008
    98       CTL2    345   POPC    C35     23      -0.18     12.011
    99       HAL2    345   POPC    H5X     23       0.09      1.008
   100       HAL2    345   POPC    H5Y     23       0.09      1.008
   101       CTL2    345   POPC    C36     24      -0.18     12.011
   102       HAL2    345   POPC    H6X     24       0.09      1.008
   103       HAL2    345   POPC    H6Y     24       0.09      1.008
   104       CTL2    345   POPC    C37     25      -0.18     12.011
   105       HAL2    345   POPC    H7X     25       0.09      1.008
   106       HAL2    345   POPC    H7Y     25       0.09      1.008
   107       CTL2    345   POPC    C38     26      -0.18     12.011
   108       HAL2    345   POPC    H8X     26       0.09      1.008
   109       HAL2    345   POPC    H8Y     26       0.09      1.008
   110       CTL2    345   POPC    C39     27      -0.18     12.011
   111       HAL2    345   POPC    H9X     27       0.09      1.008
   112       HAL2    345   POPC    H9Y     27       0.09      1.008
   113       CTL2    345   POPC   C310     28      -0.18     12.011
   114       HAL2    345   POPC   H10X     28       0.09      1.008
   115       HAL2    345   POPC   H10Y     28       0.09      1.008
   116       CTL2    345   POPC   C311     29      -0.18     12.011
   117       HAL2    345   POPC   H11X     29       0.09      1.008
   118       HAL2    345   POPC   H11Y     29       0.09      1.008
   119       CTL2    345   POPC   C312     30      -0.18     12.011
   120       HAL2    345   POPC   H12X     30       0.09      1.008
   121       HAL2    345   POPC   H12Y     30       0.09      1.008
   122       CTL2    345   POPC   C313     31      -0.18     12.011
   123       HAL2    345   POPC   H13X     31       0.09      1.008
   124       HAL2    345   POPC   H13Y     31       0.09      1.008
   125       CTL2    345   POPC   C314     32      -0.18     12.011
   126       HAL2    345   POPC   H14X     32       0.09      1.008
   127       HAL2    345   POPC   H14Y     32       0.09      1.008
   128       CTL2    345   POPC   C315     33      -0.18     12.011
   129       HAL2    345   POPC   H15X     33       0.09      1.008
   130       HAL2    345   POPC   H15Y     33       0.09      1.008
   131       CTL3    345   POPC   C316     34      -0.27     12.011
   132       HAL3    345   POPC   H16X     34       0.09      1.008
   133       HAL3    345   POPC   H16Y     34       0.09      1.008
   134       HAL3    345   POPC   H16Z     34       0.09      1.008   ; qtot 0
; residue 346 POPC rtp POPC q  0.0
   135        NTL    346   POPC      N     35       -0.6     14.007
   136       CTL2    346   POPC    C12     35       -0.1     12.011
   137         HL    346   POPC   H12A     35       0.25      1.008
   138         HL    346   POPC   H12B     35       0.25      1.008
   139       CTL5    346   POPC    C13     35      -0.35     12.011
   140         HL    346   POPC   H13A     35       0.25      1.008
   141         HL    346   POPC   H13B     35       0.25      1.008
   142         HL    346   POPC   H13C     35       0.25      1.008
   143       CTL5    346   POPC    C14     35      -0.35     12.011
   144         HL    346   POPC   H14A     35       0.25      1.008
   145         HL    346   POPC   H14B     35       0.25      1.008
   146         HL    346   POPC   H14C     35       0.25      1.008
   147       CTL5    346   POPC    C15     35      -0.35     12.011
   148         HL    346   POPC   H15A     35       0.25      1.008
   149         HL    346   POPC   H15B     35       0.25      1.008
   150         HL    346   POPC   H15C     35       0.25      1.008
   151       CTL2    346   POPC    C11     36      -0.08     12.011
   152       HAL2    346   POPC   H11A     36       0.09      1.008
   153       HAL2    346   POPC   H11B     36       0.09      1.008
   154         PL    346   POPC      P     36        1.5     30.974
   155        O2L    346   POPC    O13     36      -0.78    15.9994
   156        O2L    346   POPC    O14     36      -0.78    15.9994
   157       OSLP    346   POPC    O12     36      -0.57    15.9994
   158       OSLP    346   POPC    O11     36      -0.57    15.9994
   159       CTL2    346   POPC     C1     36      -0.08     12.011
   160       HAL2    346   POPC     HA     36       0.09      1.008
   161       HAL2    346   POPC     HB     36       0.09      1.008
   162       CTL1    346   POPC     C2     37       0.17     12.011
   163       HAL1    346   POPC     HS     37       0.09      1.008
   164        OSL    346   POPC    O21     37      -0.49    15.9994
   165         CL    346   POPC    C21     37        0.9     12.011
   166        OBL    346   POPC    O22     37      -0.63    15.9994
   167       CTL2    346   POPC    C22     37      -0.22     12.011
   168       HAL2    346   POPC    H2R     37       0.09      1.008
   169       HAL2    346   POPC    H2S     37       0.09      1.008
   170       CTL2    346   POPC     C3     38       0.08     12.011
   171       HAL2    346   POPC     HX     38       0.09      1.008
   172       HAL2    346   POPC     HY     38       0.09      1.008
   173        OSL    346   POPC    O31     38      -0.49    15.9994
   174         CL    346   POPC    C31     38        0.9     12.011
   175        OBL    346   POPC    O32     38      -0.63    15.9994
   176       CTL2    346   POPC    C32     38      -0.22     12.011
   177       HAL2    346   POPC    H2X     38       0.09      1.008
   178       HAL2    346   POPC    H2Y     38       0.09      1.008
   179       CTL2    346   POPC    C23     39      -0.18     12.011
   180       HAL2    346   POPC    H3R     39       0.09      1.008
   181       HAL2    346   POPC    H3S     39       0.09      1.008
   182       CTL2    346   POPC    C24     40      -0.18     12.011
   183       HAL2    346   POPC    H4R     40       0.09      1.008
   184       HAL2    346   POPC    H4S     40       0.09      1.008
   185       CTL2    346   POPC    C25     41      -0.18     12.011
   186       HAL2    346   POPC    H5R     41       0.09      1.008
   187       HAL2    346   POPC    H5S     41       0.09      1.008
   188       CTL2    346   POPC    C26     42      -0.18     12.011
   189       HAL2    346   POPC    H6R     42       0.09      1.008
   190       HAL2    346   POPC    H6S     42       0.09      1.008
   191       CTL2    346   POPC    C27     43      -0.18     12.011
   192       HAL2    346   POPC    H7R     43       0.09      1.008
   193       HAL2    346   POPC    H7S     43       0.09      1.008
   194       CTL2    346   POPC    C28     44      -0.18     12.011
   195       HAL2    346   POPC    H8R     44       0.09      1.008
   196       HAL2    346   POPC    H8S     44       0.09      1.008
   197       CEL1    346   POPC    C29     45      -0.15     12.011
   198       HEL1    346   POPC    H91     45       0.15      1.008
   199       CEL1    346   POPC   C210     46      -0.15     12.011
   200       HEL1    346   POPC   H101     46       0.15      1.008
   201       CTL2    346   POPC   C211     47      -0.18     12.011
   202       HAL2    346   POPC   H11R     47       0.09      1.008
   203       HAL2    346   POPC   H11S     47       0.09      1.008
   204       CTL2    346   POPC   C212     48      -0.18     12.011
   205       HAL2    346   POPC   H12R     48       0.09      1.008
   206       HAL2    346   POPC   H12S     48       0.09      1.008
   207       CTL2    346   POPC   C213     49      -0.18     12.011
   208       HAL2    346   POPC   H13R     49       0.09      1.008
   209       HAL2    346   POPC   H13S     49       0.09      1.008
   210       CTL2    346   POPC   C214     50      -0.18     12.011
   211       HAL2    346   POPC   H14R     50       0.09      1.008
   212       HAL2    346   POPC   H14S     50       0.09      1.008
   213       CTL2    346   POPC   C215     51      -0.18     12.011
   214       HAL2    346   POPC   H15R     51       0.09      1.008
   215       HAL2    346   POPC   H15S     51       0.09      1.008
   216       CTL2    346   POPC   C216     52      -0.18     12.011
   217       HAL2    346   POPC   H16R     52       0.09      1.008
   218       HAL2    346   POPC   H16S     52       0.09      1.008
   219       CTL2    346   POPC   C217     53      -0.18     12.011
   220       HAL2    346   POPC   H17R     53       0.09      1.008
   221       HAL2    346   POPC   H17S     53       0.09      1.008
   222       CTL3    346   POPC   C218     54      -0.27     12.011
   223       HAL3    346   POPC   H18R     54       0.09      1.008
   224       HAL3    346   POPC   H18S     54       0.09      1.008
   225       HAL3    346   POPC   H18T     54       0.09      1.008
   226       CTL2    346   POPC    C33     55      -0.18     12.011
   227       HAL2    346   POPC    H3X     55       0.09      1.008
   228       HAL2    346   POPC    H3Y     55       0.09      1.008
   229       CTL2    346   POPC    C34     56      -0.18     12.011
   230       HAL2    346   POPC    H4X     56       0.09      1.008
   231       HAL2    346   POPC    H4Y     56       0.09      1.008
   232       CTL2    346   POPC    C35     57      -0.18     12.011
   233       HAL2    346   POPC    H5X     57       0.09      1.008
   234       HAL2    346   POPC    H5Y     57       0.09      1.008
   235       CTL2    346   POPC    C36     58      -0.18     12.011
   236       HAL2    346   POPC    H6X     58       0.09      1.008
   237       HAL2    346   POPC    H6Y     58       0.09      1.008
   238       CTL2    346   POPC    C37     59      -0.18     12.011
   239       HAL2    346   POPC    H7X     59       0.09      1.008
   240       HAL2    346   POPC    H7Y     59       0.09      1.008
   241       CTL2    346   POPC    C38     60      -0.18     12.011
   242       HAL2    346   POPC    H8X     60       0.09      1.008
   243       HAL2    346   POPC    H8Y     60       0.09      1.008
   244       CTL2    346   POPC    C39     61      -0.18     12.011
   245       HAL2    346   POPC    H9X     61       0.09      1.008
   246       HAL2    346   POPC    H9Y     61       0.09      1.008
   247       CTL2    346   POPC   C310     62      -0.18     12.011
   248       HAL2    346   POPC   H10X     62       0.09      1.008
   249       HAL2    346   POPC   H10Y     62       0.09      1.008
   250       CTL2    346   POPC   C311     63      -0.18     12.011
   251       HAL2    346   POPC   H11X     63       0.09      1.008
   252       HAL2    346   POPC   H11Y     63       0.09      1.008
   253       CTL2    346   POPC   C312     64      -0.18     12.011
   254       HAL2    346   POPC   H12X     64       0.09      1.008
   255       HAL2    346   POPC   H12Y     64       0.09      1.008
   256       CTL2    346   POPC   C313     65      -0.18     12.011
   257       HAL2    346   POPC   H13X     65       0.09      1.008
   258       HAL2    346   POPC   H13Y     65       0.09      1.008
   259       CTL2    346   POPC   C314     66      -0.18     12.011
   260       HAL2    346   POPC   H14X     66       0.09      1.008
   261       HAL2    346   POPC   H14Y     66       0.09      1.008
   262       CTL2    346   POPC   C315     67      -0.18     12.011
   263       HAL2    346   POPC   H15X     67       0.09      1.008
   264       HAL2    346   POPC   H15Y     67       0.09      1.008
   265       CTL3    346   POPC   C316     68      -0.27     12.011
   266       HAL3    346   POPC   H16X     68       0.09      1.008
   267       HAL3    346   POPC   H16Y     68       0.09      1.008
   268       HAL3    346   POPC   H16Z     68       0.09      1.008   ; qtot 0
; residue 347 POPC rtp POPC q  0.0
   269        NTL    347   POPC      N     69       -0.6     14.007
   270       CTL2    347   POPC    C12     69       -0.1     12.011
   271         HL    347   POPC   H12A     69       0.25      1.008
   272         HL    347   POPC   H12B     69       0.25      1.008
   273       CTL5    347   POPC    C13     69      -0.35     12.011
   274         HL    347   POPC   H13A     69       0.25      1.008
   275         HL    347   POPC   H13B     69       0.25      1.008
   276         HL    347   POPC   H13C     69       0.25      1.008
   277       CTL5    347   POPC    C14     69      -0.35     12.011
   278         HL    347   POPC   H14A     69       0.25      1.008
   279         HL    347   POPC   H14B     69       0.25      1.008
   280         HL    347   POPC   H14C     69       0.25      1.008
   281       CTL5    347   POPC    C15     69      -0.35     12.011
   282         HL    347   POPC   H15A     69       0.25      1.008
   283         HL    347   POPC   H15B     69       0.25      1.008
   284         HL    347   POPC   H15C     69       0.25      1.008
   285       CTL2    347   POPC    C11     70      -0.08     12.011
   286       HAL2    347   POPC   H11A     70       0.09      1.008
   287       HAL2    347   POPC   H11B     70       0.09      1.008
   288         PL    347   POPC      P     70        1.5     30.974
   289        O2L    347   POPC    O13     70      -0.78    15.9994
   290        O2L    347   POPC    O14     70      -0.78    15.9994
   291       OSLP    347   POPC    O12     70      -0.57    15.9994
   292       OSLP    347   POPC    O11     70      -0.57    15.9994
   293       CTL2    347   POPC     C1     70      -0.08     12.011
   294       HAL2    347   POPC     HA     70       0.09      1.008
   295       HAL2    347   POPC     HB     70       0.09      1.008
   296       CTL1    347   POPC     C2     71       0.17     12.011
   297       HAL1    347   POPC     HS     71       0.09      1.008
   298        OSL    347   POPC    O21     71      -0.49    15.9994
   299         CL    347   POPC    C21     71        0.9     12.011
   300        OBL    347   POPC    O22     71      -0.63    15.9994
   301       CTL2    347   POPC    C22     71      -0.22     12.011
   302       HAL2    347   POPC    H2R     71       0.09      1.008
   303       HAL2    347   POPC    H2S     71       0.09      1.008
   304       CTL2    347   POPC     C3     72       0.08     12.011
   305       HAL2    347   POPC     HX     72       0.09      1.008
   306       HAL2    347   POPC     HY     72       0.09      1.008
   307        OSL    347   POPC    O31     72      -0.49    15.9994
   308         CL    347   POPC    C31     72        0.9     12.011
   309        OBL    347   POPC    O32     72      -0.63    15.9994
   310       CTL2    347   POPC    C32     72      -0.22     12.011
   311       HAL2    347   POPC    H2X     72       0.09      1.008
   312       HAL2    347   POPC    H2Y     72       0.09      1.008
   313       CTL2    347   POPC    C23     73      -0.18     12.011
   314       HAL2    347   POPC    H3R     73       0.09      1.008
   315       HAL2    347   POPC    H3S     73       0.09      1.008
   316       CTL2    347   POPC    C24     74      -0.18     12.011
   317       HAL2    347   POPC    H4R     74       0.09      1.008
   318       HAL2    347   POPC    H4S     74       0.09      1.008
   319       CTL2    347   POPC    C25     75      -0.18     12.011
   320       HAL2    347   POPC    H5R     75       0.09      1.008
   321       HAL2    347   POPC    H5S     75       0.09      1.008
   322       CTL2    347   POPC    C26     76      -0.18     12.011
   323       HAL2    347   POPC    H6R     76       0.09      1.008
   324       HAL2    347   POPC    H6S     76       0.09      1.008
   325       CTL2    347   POPC    C27     77      -0.18     12.011
   326       HAL2    347   POPC    H7R     77       0.09      1.008
   327       HAL2    347   POPC    H7S     77       0.09      1.008
   328       CTL2    347   POPC    C28     78      -0.18     12.011
   329       HAL2    347   POPC    H8R     78       0.09      1.008
   330       HAL2    347   POPC    H8S     78       0.09      1.008
   331       CEL1    347   POPC    C29     79      -0.15     12.011
   332       HEL1    347   POPC    H91     79       0.15      1.008
   333       CEL1    347   POPC   C210     80      -0.15     12.011
   334       HEL1    347   POPC   H101     80       0.15      1.008
   335       CTL2    347   POPC   C211     81      -0.18     12.011
   336       HAL2    347   POPC   H11R     81       0.09      1.008
   337       HAL2    347   POPC   H11S     81       0.09      1.008
   338       CTL2    347   POPC   C212     82      -0.18     12.011
   339       HAL2    347   POPC   H12R     82       0.09      1.008
   340       HAL2    347   POPC   H12S     82       0.09      1.008
   341       CTL2    347   POPC   C213     83      -0.18     12.011
   342       HAL2    347   POPC   H13R     83       0.09      1.008
   343       HAL2    347   POPC   H13S     83       0.09      1.008
   344       CTL2    347   POPC   C214     84      -0.18     12.011
   345       HAL2    347   POPC   H14R     84       0.09      1.008
   346       HAL2    347   POPC   H14S     84       0.09      1.008
   347       CTL2    347   POPC   C215     85      -0.18     12.011
   348       HAL2    347   POPC   H15R     85       0.09      1.008
   349       HAL2    347   POPC   H15S     85       0.09      1.008
   350       CTL2    347   POPC   C216     86      -0.18     12.011
   351       HAL2    347   POPC   H16R     86       0.09      1.008
   352       HAL2    347   POPC   H16S     86       0.09      1.008
   353       CTL2    347   POPC   C217     87      -0.18     12.011
   354       HAL2    347   POPC   H17R     87       0.09      1.008
   355       HAL2    347   POPC   H17S     87       0.09      1.008
   356       CTL3    347   POPC   C218     88      -0.27     12.011
   357       HAL3    347   POPC   H18R     88       0.09      1.008
   358       HAL3    347   POPC   H18S     88       0.09      1.008
   359       HAL3    347   POPC   H18T     88       0.09      1.008
   360       CTL2    347   POPC    C33     89      -0.18     12.011
   361       HAL2    347   POPC    H3X     89       0.09      1.008
   362       HAL2    347   POPC    H3Y     89       0.09      1.008
   363       CTL2    347   POPC    C34     90      -0.18     12.011
   364       HAL2    347   POPC    H4X     90       0.09      1.008
   365       HAL2    347   POPC    H4Y     90       0.09      1.008
   366       CTL2    347   POPC    C35     91      -0.18     12.011
   367       HAL2    347   POPC    H5X     91       0.09      1.008
   368       HAL2    347   POPC    H5Y     91       0.09      1.008
   369       CTL2    347   POPC    C36     92      -0.18     12.011
   370       HAL2    347   POPC    H6X     92       0.09      1.008
   371       HAL2    347   POPC    H6Y     92       0.09      1.008
   372       CTL2    347   POPC    C37     93      -0.18     12.011
   373       HAL2    347   POPC    H7X     93       0.09      1.008
   374       HAL2    347   POPC    H7Y     93       0.09      1.008
   375       CTL2    347   POPC    C38     94      -0.18     12.011
   376       HAL2    347   POPC    H8X     94       0.09      1.008
   377       HAL2    347   POPC    H8Y     94       0.09      1.008
   378       CTL2    347   POPC    C39     95      -0.18     12.011
   379       HAL2    347   POPC    H9X     95       0.09      1.008
   380       HAL2    347   POPC    H9Y     95       0.09      1.008
   381       CTL2    347   POPC   C310     96      -0.18     12.011
   382       HAL2    347   POPC   H10X     96       0.09      1.008
   383       HAL2    347   POPC   H10Y     96       0.09      1.008
   384       CTL2    347   POPC   C311     97      -0.18     12.011
   385       HAL2    347   POPC   H11X     97       0.09      1.008
   386       HAL2    347   POPC   H11Y     97       0.09      1.008
   387       CTL2    347   POPC   C312     98      -0.18     12.011
   388       HAL2    347   POPC   H12X     98       0.09      1.008
   389       HAL2    347   POPC   H12Y     98       0.09      1.008
   390       CTL2    347   POPC   C313     99      -0.18     12.011
   391       HAL2    347   POPC   H13X     99       0.09      1.008
   392       HAL2    347   POPC   H13Y     99       0.09      1.008
   393       CTL2    347   POPC   C314    100      -0.18     12.011
   394       HAL2    347   POPC   H14X    100       0.09      1.008
   395       HAL2    347   POPC   H14Y    100       0.09      1.008
   396       CTL2    347   POPC   C315    101      -0.18     12.011
   397       HAL2    347   POPC   H15X    101       0.09      1.008
   398       HAL2    347   POPC   H15Y    101       0.09      1.008
   399       CTL3    347   POPC   C316    102      -0.27     12.011
   400       HAL3    347   POPC   H16X    102       0.09      1.008
   401       HAL3    347   POPC   H16Y    102       0.09      1.008
   402       HAL3    347   POPC   H16Z    102       0.09      1.008   ; qtot 0
; residue 348 POPC rtp POPC q  0.0
   403        NTL    348   POPC      N    103       -0.6     14.007
   404       CTL2    348   POPC    C12    103       -0.1     12.011
   405         HL    348   POPC   H12A    103       0.25      1.008
   406         HL    348   POPC   H12B    103       0.25      1.008
   407       CTL5    348   POPC    C13    103      -0.35     12.011
   408         HL    348   POPC   H13A    103       0.25      1.008
   409         HL    348   POPC   H13B    103       0.25      1.008
   410         HL    348   POPC   H13C    103       0.25      1.008
   411       CTL5    348   POPC    C14    103      -0.35     12.011
   412         HL    348   POPC   H14A    103       0.25      1.008
   413         HL    348   POPC   H14B    103       0.25      1.008
   414         HL    348   POPC   H14C    103       0.25      1.008
   415       CTL5    348   POPC    C15    103      -0.35     12.011
   416         HL    348   POPC   H15A    103       0.25      1.008
   417         HL    348   POPC   H15B    103       0.25      1.008
   418         HL    348   POPC   H15C    103       0.25      1.008
   419       CTL2    348   POPC    C11    104      -0.08     12.011
   420       HAL2    348   POPC   H11A    104       0.09      1.008
   421       HAL2    348   POPC   H11B    104       0.09      1.008
   422         PL    348   POPC      P    104        1.5     30.974
   423        O2L    348   POPC    O13    104      -0.78    15.9994
   424        O2L    348   POPC    O14    104      -0.78    15.9994
   425       OSLP    348   POPC    O12    104      -0.57    15.9994
   426       OSLP    348   POPC    O11    104      -0.57    15.9994
   427       CTL2    348   POPC     C1    104      -0.08     12.011
   428       HAL2    348   POPC     HA    104       0.09      1.008
   429       HAL2    348   POPC     HB    104       0.09      1.008
   430       CTL1    348   POPC     C2    105       0.17     12.011
   431       HAL1    348   POPC     HS    105       0.09      1.008
   432        OSL    348   POPC    O21    105      -0.49    15.9994
   433         CL    348   POPC    C21    105        0.9     12.011
   434        OBL    348   POPC    O22    105      -0.63    15.9994
   435       CTL2    348   POPC    C22    105      -0.22     12.011
   436       HAL2    348   POPC    H2R    105       0.09      1.008
   437       HAL2    348   POPC    H2S    105       0.09      1.008
   438       CTL2    348   POPC     C3    106       0.08     12.011
   439       HAL2    348   POPC     HX    106       0.09      1.008
   440       HAL2    348   POPC     HY    106       0.09      1.008
   441        OSL    348   POPC    O31    106      -0.49    15.9994
   442         CL    348   POPC    C31    106        0.9     12.011
   443        OBL    348   POPC    O32    106      -0.63    15.9994
   444       CTL2    348   POPC    C32    106      -0.22     12.011
   445       HAL2    348   POPC    H2X    106       0.09      1.008
   446       HAL2    348   POPC    H2Y    106       0.09      1.008
   447       CTL2    348   POPC    C23    107      -0.18     12.011
   448       HAL2    348   POPC    H3R    107       0.09      1.008
   449       HAL2    348   POPC    H3S    107       0.09      1.008
   450       CTL2    348   POPC    C24    108      -0.18     12.011
   451       HAL2    348   POPC    H4R    108       0.09      1.008
   452       HAL2    348   POPC    H4S    108       0.09      1.008
   453       CTL2    348   POPC    C25    109      -0.18     12.011
   454       HAL2    348   POPC    H5R    109       0.09      1.008
   455       HAL2    348   POPC    H5S    109       0.09      1.008
   456       CTL2    348   POPC    C26    110      -0.18     12.011
   457       HAL2    348   POPC    H6R    110       0.09      1.008
   458       HAL2    348   POPC    H6S    110       0.09      1.008
   459       CTL2    348   POPC    C27    111      -0.18     12.011
   460       HAL2    348   POPC    H7R    111       0.09      1.008
   461       HAL2    348   POPC    H7S    111       0.09      1.008
   462       CTL2    348   POPC    C28    112      -0.18     12.011
   463       HAL2    348   POPC    H8R    112       0.09      1.008
   464       HAL2    348   POPC    H8S    112       0.09      1.008
   465       CEL1    348   POPC    C29    113      -0.15     12.011
   466       HEL1    348   POPC    H91    113       0.15      1.008
   467       CEL1    348   POPC   C210    114      -0.15     12.011
   468       HEL1    348   POPC   H101    114       0.15      1.008
   469       CTL2    348   POPC   C211    115      -0.18     12.011
   470       HAL2    348   POPC   H11R    115       0.09      1.008
   471       HAL2    348   POPC   H11S    115       0.09      1.008
   472       CTL2    348   POPC   C212    116      -0.18     12.011
   473       HAL2    348   POPC   H12R    116       0.09      1.008
   474       HAL2    348   POPC   H12S    116       0.09      1.008
   475       CTL2    348   POPC   C213    117      -0.18     12.011
   476       HAL2    348   POPC   H13R    117       0.09      1.008
   477       HAL2    348   POPC   H13S    117       0.09      1.008
   478       CTL2    348   POPC   C214    118      -0.18     12.011
   479       HAL2    348   POPC   H14R    118       0.09      1.008
   480       HAL2    348   POPC   H14S    118       0.09      1.008
   481       CTL2    348   POPC   C215    119      -0.18     12.011
   482       HAL2    348   POPC   H15R    119       0.09      1.008
   483       HAL2    348   POPC   H15S    119       0.09      1.008
   484       CTL2    348   POPC   C216    120      -0.18     12.011
   485       HAL2    348   POPC   H16R    120       0.09      1.008
   486       HAL2    348   POPC   H16S    120       0.09      1.008
   487       CTL2    348   POPC   C217    121      -0.18     12.011
   488       HAL2    348   POPC   H17R    121       0.09      1.008
   489       HAL2    348   POPC   H17S    121       0.09      1.008
   490       CTL3    348   POPC   C218    122      -0.27     12.011
   491       HAL3    348   POPC   H18R    122       0.09      1.008
   492       HAL3    348   POPC   H18S    122       0.09      1.008
   493       HAL3    348   POPC   H18T    122       0.09      1.008
   494       CTL2    348   POPC    C33    123      -0.18     12.011
   495       HAL2    348   POPC    H3X    123       0.09      1.008
   496       HAL2    348   POPC    H3Y    123       0.09      1.008
   497       CTL2    348   POPC    C34    124      -0.18     12.011
   498       HAL2    348   POPC    H4X    124       0.09      1.008
   499       HAL2    348   POPC    H4Y    124       0.09      1.008
   500       CTL2    348   POPC    C35    125      -0.18     12.011
   501       HAL2    348   POPC    H5X    125       0.09      1.008
   502       HAL2    348   POPC    H5Y    125       0.09      1.008
   503       CTL2    348   POPC    C36    126      -0.18     12.011
   504       HAL2    348   POPC    H6X    126       0.09      1.008
   505       HAL2    348   POPC    H6Y    126       0.09      1.008
   506       CTL2    348   POPC    C37    127      -0.18     12.011
   507       HAL2    348   POPC    H7X    127       0.09      1.008
   508       HAL2    348   POPC    H7Y    127       0.09      1.008
   509       CTL2    348   POPC    C38    128      -0.18     12.011
   510       HAL2    348   POPC    H8X    128       0.09      1.008
   511       HAL2    348   POPC    H8Y    128       0.09      1.008
   512       CTL2    348   POPC    C39    129      -0.18     12.011
   513       HAL2    348   POPC    H9X    129       0.09      1.008
   514       HAL2    348   POPC    H9Y    129       0.09      1.008
   515       CTL2    348   POPC   C310    130      -0.18     12.011
   516       HAL2    348   POPC   H10X    130       0.09      1.008
   517       HAL2    348   POPC   H10Y    130       0.09      1.008
   518       CTL2    348   POPC   C311    131      -0.18     12.011
   519       HAL2    348   POPC   H11X    131       0.09      1.008
   520       HAL2    348   POPC   H11Y    131       0.09      1.008
   521       CTL2    348   POPC   C312    132      -0.18     12.011
   522       HAL2    348   POPC   H12X    132       0.09      1.008
   523       HAL2    348   POPC   H12Y    132       0.09      1.008
   524       CTL2    348   POPC   C313    133      -0.18     12.011
   525       HAL2    348   POPC   H13X    133       0.09      1.008
   526       HAL2    348   POPC   H13Y    133       0.09      1.008
   527       CTL2    348   POPC   C314    134      -0.18     12.011
   528       HAL2    348   POPC   H14X    134       0.09      1.008
   529       HAL2    348   POPC   H14Y    134       0.09      1.008
   530       CTL2    348   POPC   C315    135      -0.18     12.011
   531       HAL2    348   POPC   H15X    135       0.09      1.008
   532       HAL2    348   POPC   H15Y    135       0.09      1.008
   533       CTL3    348   POPC   C316    136      -0.27     12.011
   534       HAL3    348   POPC   H16X    136       0.09      1.008
   535       HAL3    348   POPC   H16Y    136       0.09      1.008
   536       HAL3    348   POPC   H16Z    136       0.09      1.008   ; qtot 0
; residue 349 POPC rtp POPC q  0.0
   537        NTL    349   POPC      N    137       -0.6     14.007
   538       CTL2    349   POPC    C12    137       -0.1     12.011
   539         HL    349   POPC   H12A    137       0.25      1.008
   540         HL    349   POPC   H12B    137       0.25      1.008
   541       CTL5    349   POPC    C13    137      -0.35     12.011
   542         HL    349   POPC   H13A    137       0.25      1.008
   543         HL    349   POPC   H13B    137       0.25      1.008
   544         HL    349   POPC   H13C    137       0.25      1.008
   545       CTL5    349   POPC    C14    137      -0.35     12.011
   546         HL    349   POPC   H14A    137       0.25      1.008
   547         HL    349   POPC   H14B    137       0.25      1.008
   548         HL    349   POPC   H14C    137       0.25      1.008
   549       CTL5    349   POPC    C15    137      -0.35     12.011
   550         HL    349   POPC   H15A    137       0.25      1.008
   551         HL    349   POPC   H15B    137       0.25      1.008
   552         HL    349   POPC   H15C    137       0.25      1.008
   553       CTL2    349   POPC    C11    138      -0.08     12.011
   554       HAL2    349   POPC   H11A    138       0.09      1.008
   555       HAL2    349   POPC   H11B    138       0.09      1.008
   556         PL    349   POPC      P    138        1.5     30.974
   557        O2L    349   POPC    O13    138      -0.78    15.9994
   558        O2L    349   POPC    O14    138      -0.78    15.9994
   559       OSLP    349   POPC    O12    138      -0.57    15.9994
   560       OSLP    349   POPC    O11    138      -0.57    15.9994
   561       CTL2    349   POPC     C1    138      -0.08     12.011
   562       HAL2    349   POPC     HA    138       0.09      1.008
   563       HAL2    349   POPC     HB    138       0.09      1.008
   564       CTL1    349   POPC     C2    139       0.17     12.011
   565       HAL1    349   POPC     HS    139       0.09      1.008
   566        OSL    349   POPC    O21    139      -0.49    15.9994
   567         CL    349   POPC    C21    139        0.9     12.011
   568        OBL    349   POPC    O22    139      -0.63    15.9994
   569       CTL2    349   POPC    C22    139      -0.22     12.011
   570       HAL2    349   POPC    H2R    139       0.09      1.008
   571       HAL2    349   POPC    H2S    139       0.09      1.008
   572       CTL2    349   POPC     C3    140       0.08     12.011
   573       HAL2    349   POPC     HX    140       0.09      1.008
   574       HAL2    349   POPC     HY    140       0.09      1.008
   575        OSL    349   POPC    O31    140      -0.49    15.9994
   576         CL    349   POPC    C31    140        0.9     12.011
   577        OBL    349   POPC    O32    140      -0.63    15.9994
   578       CTL2    349   POPC    C32    140      -0.22     12.011
   579       HAL2    349   POPC    H2X    140       0.09      1.008
   580       HAL2    349   POPC    H2Y    140       0.09      1.008
   581       CTL2    349   POPC    C23    141      -0.18     12.011
   582       HAL2    349   POPC    H3R    141       0.09      1.008
   583       HAL2    349   POPC    H3S    141       0.09      1.008
   584       CTL2    349   POPC    C24    142      -0.18     12.011
   585       HAL2    349   POPC    H4R    142       0.09      1.008
   586       HAL2    349   POPC    H4S    142       0.09      1.008
   587       CTL2    349   POPC    C25    143      -0.18     12.011
   588       HAL2    349   POPC    H5R    143       0.09      1.008
   589       HAL2    349   POPC    H5S    143       0.09      1.008
   590       CTL2    349   POPC    C26    144      -0.18     12.011
   591       HAL2    349   POPC    H6R    144       0.09      1.008
   592       HAL2    349   POPC    H6S    144       0.09      1.008
   593       CTL2    349   POPC    C27    145      -0.18     12.011
   594       HAL2    349   POPC    H7R    145       0.09      1.008
   595       HAL2    349   POPC    H7S    145       0.09      1.008
   596       CTL2    349   POPC    C28    146      -0.18     12.011
   597       HAL2    349   POPC    H8R    146       0.09      1.008
   598       HAL2    349   POPC    H8S    146       0.09      1.008
   599       CEL1    349   POPC    C29    147      -0.15     12.011
   600       HEL1    349   POPC    H91    147       0.15      1.008
   601       CEL1    349   POPC   C210    148      -0.15     12.011
   602       HEL1    349   POPC   H101    148       0.15      1.008
   603       CTL2    349   POPC   C211    149      -0.18     12.011
   604       HAL2    349   POPC   H11R    149       0.09      1.008
   605       HAL2    349   POPC   H11S    149       0.09      1.008
   606       CTL2    349   POPC   C212    150      -0.18     12.011
   607       HAL2    349   POPC   H12R    150       0.09      1.008
   608       HAL2    349   POPC   H12S    150       0.09      1.008
   609       CTL2    349   POPC   C213    151      -0.18     12.011
   610       HAL2    349   POPC   H13R    151       0.09      1.008
   611       HAL2    349   POPC   H13S    151       0.09      1.008
   612       CTL2    349   POPC   C214    152      -0.18     12.011
   613       HAL2    349   POPC   H14R    152       0.09      1.008
   614       HAL2    349   POPC   H14S    152       0.09      1.008
   615       CTL2    349   POPC   C215    153      -0.18     12.011
   616       HAL2    349   POPC   H15R    153       0.09      1.008
   617       HAL2    349   POPC   H15S    153       0.09      1.008
   618       CTL2    349   POPC   C216    154      -0.18     12.011
   619       HAL2    349   POPC   H16R    154       0.09      1.008
   620       HAL2    349   POPC   H16S    154       0.09      1.008
   621       CTL2    349   POPC   C217    155      -0.18     12.011
   622       HAL2    349   POPC   H17R    155       0.09      1.008
   623       HAL2    349   POPC   H17S    155       0.09      1.008
   624       CTL3    349   POPC   C218    156      -0.27     12.011
   625       HAL3    349   POPC   H18R    156       0.09      1.008
   626       HAL3    349   POPC   H18S    156       0.09      1.008
   627       HAL3    349   POPC   H18T    156       0.09      1.008
   628       CTL2    349   POPC    C33    157      -0.18     12.011
   629       HAL2    349   POPC    H3X    157       0.09      1.008
   630       HAL2    349   POPC    H3Y    157       0.09      1.008
   631       CTL2    349   POPC    C34    158      -0.18     12.011
   632       HAL2    349   POPC    H4X    158       0.09      1.008
   633       HAL2    349   POPC    H4Y    158       0.09      1.008
   634       CTL2    349   POPC    C35    159      -0.18     12.011
   635       HAL2    349   POPC    H5X    159       0.09      1.008
   636       HAL2    349   POPC    H5Y    159       0.09      1.008
   637       CTL2    349   POPC    C36    160      -0.18     12.011
   638       HAL2    349   POPC    H6X    160       0.09      1.008
   639       HAL2    349   POPC    H6Y    160       0.09      1.008
   640       CTL2    349   POPC    C37    161      -0.18     12.011
   641       HAL2    349   POPC    H7X    161       0.09      1.008
   642       HAL2    349   POPC    H7Y    161       0.09      1.008
   643       CTL2    349   POPC    C38    162      -0.18     12.011
   644       HAL2    349   POPC    H8X    162       0.09      1.008
   645       HAL2    349   POPC    H8Y    162       0.09      1.008
   646       CTL2    349   POPC    C39    163      -0.18     12.011
   647       HAL2    349   POPC    H9X    163       0.09      1.008
   648       HAL2    349   POPC    H9Y    163       0.09      1.008
   649       CTL2    349   POPC   C310    164      -0.18     12.011
   650       HAL2    349   POPC   H10X    164       0.09      1.008
   651       HAL2    349   POPC   H10Y    164       0.09      1.008
   652       CTL2    349   POPC   C311    165      -0.18     12.011
   653       HAL2    349   POPC   H11X    165       0.09      1.008
   654       HAL2    349   POPC   H11Y    165       0.09      1.008
   655       CTL2    349   POPC   C312    166      -0.18     12.011
   656       HAL2    349   POPC   H12X    166       0.09      1.008
   657       HAL2    349   POPC   H12Y    166       0.09      1.008
   658       CTL2    349   POPC   C313    167      -0.18     12.011
   659       HAL2    349   POPC   H13X    167       0.09      1.008
   660       HAL2    349   POPC   H13Y    167       0.09      1.008
   661       CTL2    349   POPC   C314    168      -0.18     12.011
   662       HAL2    349   POPC   H14X    168       0.09      1.008
   663       HAL2    349   POPC   H14Y    168       0.09      1.008
   664       CTL2    349   POPC   C315    169      -0.18     12.011
   665       HAL2    349   POPC   H15X    169       0.09      1.008
   666       HAL2    349   POPC   H15Y    169       0.09      1.008
   667       CTL3    349   POPC   C316    170      -0.27     12.011
   668       HAL3    349   POPC   H16X    170       0.09      1.008
   669       HAL3    349   POPC   H16Y    170       0.09      1.008
   670       HAL3    349   POPC   H16Z    170       0.09      1.008   ; qtot 0
; residue 350 POPC rtp POPC q  0.0
   671        NTL    350   POPC      N    171       -0.6     14.007
   672       CTL2    350   POPC    C12    171       -0.1     12.011
   673         HL    350   POPC   H12A    171       0.25      1.008
   674         HL    350   POPC   H12B    171       0.25      1.008
   675       CTL5    350   POPC    C13    171      -0.35     12.011
   676         HL    350   POPC   H13A    171       0.25      1.008
   677         HL    350   POPC   H13B    171       0.25      1.008
   678         HL    350   POPC   H13C    171       0.25      1.008
   679       CTL5    350   POPC    C14    171      -0.35     12.011
   680         HL    350   POPC   H14A    171       0.25      1.008
   681         HL    350   POPC   H14B    171       0.25      1.008
   682         HL    350   POPC   H14C    171       0.25      1.008
   683       CTL5    350   POPC    C15    171      -0.35     12.011
   684         HL    350   POPC   H15A    171       0.25      1.008
   685         HL    350   POPC   H15B    171       0.25      1.008
   686         HL    350   POPC   H15C    171       0.25      1.008
   687       CTL2    350   POPC    C11    172      -0.08     12.011
   688       HAL2    350   POPC   H11A    172       0.09      1.008
   689       HAL2    350   POPC   H11B    172       0.09      1.008
   690         PL    350   POPC      P    172        1.5     30.974
   691        O2L    350   POPC    O13    172      -0.78    15.9994
   692        O2L    350   POPC    O14    172      -0.78    15.9994
   693       OSLP    350   POPC    O12    172      -0.57    15.9994
   694       OSLP    350   POPC    O11    172      -0.57    15.9994
   695       CTL2    350   POPC     C1    172      -0.08     12.011
   696       HAL2    350   POPC     HA    172       0.09      1.008
   697       HAL2    350   POPC     HB    172       0.09      1.008
   698       CTL1    350   POPC     C2    173       0.17     12.011
   699       HAL1    350   POPC     HS    173       0.09      1.008
   700        OSL    350   POPC    O21    173      -0.49    15.9994
   701         CL    350   POPC    C21    173        0.9     12.011
   702        OBL    350   POPC    O22    173      -0.63    15.9994
   703       CTL2    350   POPC    C22    173      -0.22     12.011
   704       HAL2    350   POPC    H2R    173       0.09      1.008
   705       HAL2    350   POPC    H2S    173       0.09      1.008
   706       CTL2    350   POPC     C3    174       0.08     12.011
   707       HAL2    350   POPC     HX    174       0.09      1.008
   708       HAL2    350   POPC     HY    174       0.09      1.008
   709        OSL    350   POPC    O31    174      -0.49    15.9994
   710         CL    350   POPC    C31    174        0.9     12.011
   711        OBL    350   POPC    O32    174      -0.63    15.9994
   712       CTL2    350   POPC    C32    174      -0.22     12.011
   713       HAL2    350   POPC    H2X    174       0.09      1.008
   714       HAL2    350   POPC    H2Y    174       0.09      1.008
   715       CTL2    350   POPC    C23    175      -0.18     12.011
   716       HAL2    350   POPC    H3R    175       0.09      1.008
   717       HAL2    350   POPC    H3S    175       0.09      1.008
   718       CTL2    350   POPC    C24    176      -0.18     12.011
   719       HAL2    350   POPC    H4R    176       0.09      1.008
   720       HAL2    350   POPC    H4S    176       0.09      1.008
   721       CTL2    350   POPC    C25    177      -0.18     12.011
   722       HAL2    350   POPC    H5R    177       0.09      1.008
   723       HAL2    350   POPC    H5S    177       0.09      1.008
   724       CTL2    350   POPC    C26    178      -0.18     12.011
   725       HAL2    350   POPC    H6R    178       0.09      1.008
   726       HAL2    350   POPC    H6S    178       0.09      1.008
   727       CTL2    350   POPC    C27    179      -0.18     12.011
   728       HAL2    350   POPC    H7R    179       0.09      1.008
   729       HAL2    350   POPC    H7S    179       0.09      1.008
   730       CTL2    350   POPC    C28    180      -0.18     12.011
   731       HAL2    350   POPC    H8R    180       0.09      1.008
   732       HAL2    350   POPC    H8S    180       0.09      1.008
   733       CEL1    350   POPC    C29    181      -0.15     12.011
   734       HEL1    350   POPC    H91    181       0.15      1.008
   735       CEL1    350   POPC   C210    182      -0.15     12.011
   736       HEL1    350   POPC   H101    182       0.15      1.008
   737       CTL2    350   POPC   C211    183      -0.18     12.011
   738       HAL2    350   POPC   H11R    183       0.09      1.008
   739       HAL2    350   POPC   H11S    183       0.09      1.008
   740       CTL2    350   POPC   C212    184      -0.18     12.011
   741       HAL2    350   POPC   H12R    184       0.09      1.008
   742       HAL2    350   POPC   H12S    184       0.09      1.008
   743       CTL2    350   POPC   C213    185      -0.18     12.011
   744       HAL2    350   POPC   H13R    185       0.09      1.008
   745       HAL2    350   POPC   H13S    185       0.09      1.008
   746       CTL2    350   POPC   C214    186      -0.18     12.011
   747       HAL2    350   POPC   H14R    186       0.09      1.008
   748       HAL2    350   POPC   H14S    186       0.09      1.008
   749       CTL2    350   POPC   C215    187      -0.18     12.011
   750       HAL2    350   POPC   H15R    187       0.09      1.008
   751       HAL2    350   POPC   H15S    187       0.09      1.008
   752       CTL2    350   POPC   C216    188      -0.18     12.011
   753       HAL2    350   POPC   H16R    188       0.09      1.008
   754       HAL2    350   POPC   H16S    188       0.09      1.008
   755       CTL2    350   POPC   C217    189      -0.18     12.011
   756       HAL2    350   POPC   H17R    189       0.09      1.008
   757       HAL2    350   POPC   H17S    189       0.09      1.008
   758       CTL3    350   POPC   C218    190      -0.27     12.011
   759       HAL3    350   POPC   H18R    190       0.09      1.008
   760       HAL3    350   POPC   H18S    190       0.09      1.008
   761       HAL3    350   POPC   H18T    190       0.09      1.008
   762       CTL2    350   POPC    C33    191      -0.18     12.011
   763       HAL2    350   POPC    H3X    191       0.09      1.008
   764       HAL2    350   POPC    H3Y    191       0.09      1.008
   765       CTL2    350   POPC    C34    192      -0.18     12.011
   766       HAL2    350   POPC    H4X    192       0.09      1.008
   767       HAL2    350   POPC    H4Y    192       0.09      1.008
   768       CTL2    350   POPC    C35    193      -0.18     12.011
   769       HAL2    350   POPC    H5X    193       0.09      1.008
   770       HAL2    350   POPC    H5Y    193       0.09      1.008
   771       CTL2    350   POPC    C36    194      -0.18     12.011
   772       HAL2    350   POPC    H6X    194       0.09      1.008
   773       HAL2    350   POPC    H6Y    194       0.09      1.008
   774       CTL2    350   POPC    C37    195      -0.18     12.011
   775       HAL2    350   POPC    H7X    195       0.09      1.008
   776       HAL2    350   POPC    H7Y    195       0.09      1.008
   777       CTL2    350   POPC    C38    196      -0.18     12.011
   778       HAL2    350   POPC    H8X    196       0.09      1.008
   779       HAL2    350   POPC    H8Y    196       0.09      1.008
   780       CTL2    350   POPC    C39    197      -0.18     12.011
   781       HAL2    350   POPC    H9X    197       0.09      1.008
   782       HAL2    350   POPC    H9Y    197       0.09      1.008
   783       CTL2    350   POPC   C310    198      -0.18     12.011
   784       HAL2    350   POPC   H10X    198       0.09      1.008
   785       HAL2    350   POPC   H10Y    198       0.09      1.008
   786       CTL2    350   POPC   C311    199      -0.18     12.011
   787       HAL2    350   POPC   H11X    199       0.09      1.008
   788       HAL2    350   POPC   H11Y    199       0.09      1.008
   789       CTL2    350   POPC   C312    200      -0.18     12.011
   790       HAL2    350   POPC   H12X    200       0.09      1.008
   791       HAL2    350   POPC   H12Y    200       0.09      1.008
   792       CTL2    350   POPC   C313    201      -0.18     12.011
   793       HAL2    350   POPC   H13X    201       0.09      1.008
   794       HAL2    350   POPC   H13Y    201       0.09      1.008
   795       CTL2    350   POPC   C314    202      -0.18     12.011
   796       HAL2    350   POPC   H14X    202       0.09      1.008
   797       HAL2    350   POPC   H14Y    202       0.09      1.008
   798       CTL2    350   POPC   C315    203      -0.18     12.011
   799       HAL2    350   POPC   H15X    203       0.09      1.008
   800       HAL2    350   POPC   H15Y    203       0.09      1.008
   801       CTL3    350   POPC   C316    204      -0.27     12.011
   802       HAL3    350   POPC   H16X    204       0.09      1.008
   803       HAL3    350   POPC   H16Y    204       0.09      1.008
   804       HAL3    350   POPC   H16Z    204       0.09      1.008   ; qtot 0
; residue 351 POPC rtp POPC q  0.0
   805        NTL    351   POPC      N    205       -0.6     14.007
   806       CTL2    351   POPC    C12    205       -0.1     12.011
   807         HL    351   POPC   H12A    205       0.25      1.008
   808         HL    351   POPC   H12B    205       0.25      1.008
   809       CTL5    351   POPC    C13    205      -0.35     12.011
   810         HL    351   POPC   H13A    205       0.25      1.008
   811         HL    351   POPC   H13B    205       0.25      1.008
   812         HL    351   POPC   H13C    205       0.25      1.008
   813       CTL5    351   POPC    C14    205      -0.35     12.011
   814         HL    351   POPC   H14A    205       0.25      1.008
   815         HL    351   POPC   H14B    205       0.25      1.008
   816         HL    351   POPC   H14C    205       0.25      1.008
   817       CTL5    351   POPC    C15    205      -0.35     12.011
   818         HL    351   POPC   H15A    205       0.25      1.008
   819         HL    351   POPC   H15B    205       0.25      1.008
   820         HL    351   POPC   H15C    205       0.25      1.008
   821       CTL2    351   POPC    C11    206      -0.08     12.011
   822       HAL2    351   POPC   H11A    206       0.09      1.008
   823       HAL2    351   POPC   H11B    206       0.09      1.008
   824         PL    351   POPC      P    206        1.5     30.974
   825        O2L    351   POPC    O13    206      -0.78    15.9994
   826        O2L    351   POPC    O14    206      -0.78    15.9994
   827       OSLP    351   POPC    O12    206      -0.57    15.9994
   828       OSLP    351   POPC    O11    206      -0.57    15.9994
   829       CTL2    351   POPC     C1    206      -0.08     12.011
   830       HAL2    351   POPC     HA    206       0.09      1.008
   831       HAL2    351   POPC     HB    206       0.09      1.008
   832       CTL1    351   POPC     C2    207       0.17     12.011
   833       HAL1    351   POPC     HS    207       0.09      1.008
   834        OSL    351   POPC    O21    207      -0.49    15.9994
   835         CL    351   POPC    C21    207        0.9     12.011
   836        OBL    351   POPC    O22    207      -0.63    15.9994
   837       CTL2    351   POPC    C22    207      -0.22     12.011
   838       HAL2    351   POPC    H2R    207       0.09      1.008
   839       HAL2    351   POPC    H2S    207       0.09      1.008
   840       CTL2    351   POPC     C3    208       0.08     12.011
   841       HAL2    351   POPC     HX    208       0.09      1.008
   842       HAL2    351   POPC     HY    208       0.09      1.008
   843        OSL    351   POPC    O31    208      -0.49    15.9994
   844         CL    351   POPC    C31    208        0.9     12.011
   845        OBL    351   POPC    O32    208      -0.63    15.9994
   846       CTL2    351   POPC    C32    208      -0.22     12.011
   847       HAL2    351   POPC    H2X    208       0.09      1.008
   848       HAL2    351   POPC    H2Y    208       0.09      1.008
   849       CTL2    351   POPC    C23    209      -0.18     12.011
   850       HAL2    351   POPC    H3R    209       0.09      1.008
   851       HAL2    351   POPC    H3S    209       0.09      1.008
   852       CTL2    351   POPC    C24    210      -0.18     12.011
   853       HAL2    351   POPC    H4R    210       0.09      1.008
   854       HAL2    351   POPC    H4S    210       0.09      1.008
   855       CTL2    351   POPC    C25    211      -0.18     12.011
   856       HAL2    351   POPC    H5R    211       0.09      1.008
   857       HAL2    351   POPC    H5S    211       0.09      1.008
   858       CTL2    351   POPC    C26    212      -0.18     12.011
   859       HAL2    351   POPC    H6R    212       0.09      1.008
   860       HAL2    351   POPC    H6S    212       0.09      1.008
   861       CTL2    351   POPC    C27    213      -0.18     12.011
   862       HAL2    351   POPC    H7R    213       0.09      1.008
   863       HAL2    351   POPC    H7S    213       0.09      1.008
   864       CTL2    351   POPC    C28    214      -0.18     12.011
   865       HAL2    351   POPC    H8R    214       0.09      1.008
   866       HAL2    351   POPC    H8S    214       0.09      1.008
   867       CEL1    351   POPC    C29    215      -0.15     12.011
   868       HEL1    351   POPC    H91    215       0.15      1.008
   869       CEL1    351   POPC   C210    216      -0.15     12.011
   870       HEL1    351   POPC   H101    216       0.15      1.008
   871       CTL2    351   POPC   C211    217      -0.18     12.011
   872       HAL2    351   POPC   H11R    217       0.09      1.008
   873       HAL2    351   POPC   H11S    217       0.09      1.008
   874       CTL2    351   POPC   C212    218      -0.18     12.011
   875       HAL2    351   POPC   H12R    218       0.09      1.008
   876       HAL2    351   POPC   H12S    218       0.09      1.008
   877       CTL2    351   POPC   C213    219      -0.18     12.011
   878       HAL2    351   POPC   H13R    219       0.09      1.008
   879       HAL2    351   POPC   H13S    219       0.09      1.008
   880       CTL2    351   POPC   C214    220      -0.18     12.011
   881       HAL2    351   POPC   H14R    220       0.09      1.008
   882       HAL2    351   POPC   H14S    220       0.09      1.008
   883       CTL2    351   POPC   C215    221      -0.18     12.011
   884       HAL2    351   POPC   H15R    221       0.09      1.008
   885       HAL2    351   POPC   H15S    221       0.09      1.008
   886       CTL2    351   POPC   C216    222      -0.18     12.011
   887       HAL2    351   POPC   H16R    222       0.09      1.008
   888       HAL2    351   POPC   H16S    222       0.09      1.008
   889       CTL2    351   POPC   C217    223      -0.18     12.011
   890       HAL2    351   POPC   H17R    223       0.09      1.008
   891       HAL2    351   POPC   H17S    223       0.09      1.008
   892       CTL3    351   POPC   C218    224      -0.27     12.011
   893       HAL3    351   POPC   H18R    224       0.09      1.008
   894       HAL3    351   POPC   H18S    224       0.09      1.008
   895       HAL3    351   POPC   H18T    224       0.09      1.008
   896       CTL2    351   POPC    C33    225      -0.18     12.011
   897       HAL2    351   POPC    H3X    225       0.09      1.008
   898       HAL2    351   POPC    H3Y    225       0.09      1.008
   899       CTL2    351   POPC    C34    226      -0.18     12.011
   900       HAL2    351   POPC    H4X    226       0.09      1.008
   901       HAL2    351   POPC    H4Y    226       0.09      1.008
   902       CTL2    351   POPC    C35    227      -0.18     12.011
   903       HAL2    351   POPC    H5X    227       0.09      1.008
   904       HAL2    351   POPC    H5Y    227       0.09      1.008
   905       CTL2    351   POPC    C36    228      -0.18     12.011
   906       HAL2    351   POPC    H6X    228       0.09      1.008
   907       HAL2    351   POPC    H6Y    228       0.09      1.008
   908       CTL2    351   POPC    C37    229      -0.18     12.011
   909       HAL2    351   POPC    H7X    229       0.09      1.008
   910       HAL2    351   POPC    H7Y    229       0.09      1.008
   911       CTL2    351   POPC    C38    230      -0.18     12.011
   912       HAL2    351   POPC    H8X    230       0.09      1.008
   913       HAL2    351   POPC    H8Y    230       0.09      1.008
   914       CTL2    351   POPC    C39    231      -0.18     12.011
   915       HAL2    351   POPC    H9X    231       0.09      1.008
   916       HAL2    351   POPC    H9Y    231       0.09      1.008
   917       CTL2    351   POPC   C310    232      -0.18     12.011
   918       HAL2    351   POPC   H10X    232       0.09      1.008
   919       HAL2    351   POPC   H10Y    232       0.09      1.008
   920       CTL2    351   POPC   C311    233      -0.18     12.011
   921       HAL2    351   POPC   H11X    233       0.09      1.008
   922       HAL2    351   POPC   H11Y    233       0.09      1.008
   923       CTL2    351   POPC   C312    234      -0.18     12.011
   924       HAL2    351   POPC   H12X    234       0.09      1.008
   925       HAL2    351   POPC   H12Y    234       0.09      1.008
   926       CTL2    351   POPC   C313    235      -0.18     12.011
   927       HAL2    351   POPC   H13X    235       0.09      1.008
   928       HAL2    351   POPC   H13Y    235       0.09      1.008
   929       CTL2    351   POPC   C314    236      -0.18     12.011
   930       HAL2    351   POPC   H14X    236       0.09      1.008
   931       HAL2    351   POPC   H14Y    236       0.09      1.008
   932       CTL2    351   POPC   C315    237      -0.18     12.011
   933       HAL2    351   POPC   H15X    237       0.09      1.008
   934       HAL2    351   POPC   H15Y    237       0.09      1.008
   935       CTL3    351   POPC   C316    238      -0.27     12.011
   936       HAL3    351   POPC   H16X    238       0.09      1.008
   937       HAL3    351   POPC   H16Y    238       0.09      1.008
   938       HAL3    351   POPC   H16Z    238       0.09      1.008   ; qtot 0
; residue 352 POPC rtp POPC q  0.0
   939        NTL    352   POPC      N    239       -0.6     14.007
   940       CTL2    352   POPC    C12    239       -0.1     12.011
   941         HL    352   POPC   H12A    239       0.25      1.008
   942         HL    352   POPC   H12B    239       0.25      1.008
   943       CTL5    352   POPC    C13    239      -0.35     12.011
   944         HL    352   POPC   H13A    239       0.25      1.008
   945         HL    352   POPC   H13B    239       0.25      1.008
   946         HL    352   POPC   H13C    239       0.25      1.008
   947       CTL5    352   POPC    C14    239      -0.35     12.011
   948         HL    352   POPC   H14A    239       0.25      1.008
   949         HL    352   POPC   H14B    239       0.25      1.008
   950         HL    352   POPC   H14C    239       0.25      1.008
   951       CTL5    352   POPC    C15    239      -0.35     12.011
   952         HL    352   POPC   H15A    239       0.25      1.008
   953         HL    352   POPC   H15B    239       0.25      1.008
   954         HL    352   POPC   H15C    239       0.25      1.008
   955       CTL2    352   POPC    C11    240      -0.08     12.011
   956       HAL2    352   POPC   H11A    240       0.09      1.008
   957       HAL2    352   POPC   H11B    240       0.09      1.008
   958         PL    352   POPC      P    240        1.5     30.974
   959        O2L    352   POPC    O13    240      -0.78    15.9994
   960        O2L    352   POPC    O14    240      -0.78    15.9994
   961       OSLP    352   POPC    O12    240      -0.57    15.9994
   962       OSLP    352   POPC    O11    240      -0.57    15.9994
   963       CTL2    352   POPC     C1    240      -0.08     12.011
   964       HAL2    352   POPC     HA    240       0.09      1.008
   965       HAL2    352   POPC     HB    240       0.09      1.008
   966       CTL1    352   POPC     C2    241       0.17     12.011
   967       HAL1    352   POPC     HS    241       0.09      1.008
   968        OSL    352   POPC    O21    241      -0.49    15.9994
   969         CL    352   POPC    C21    241        0.9     12.011
   970        OBL    352   POPC    O22    241      -0.63    15.9994
   971       CTL2    352   POPC    C22    241      -0.22     12.011
   972       HAL2    352   POPC    H2R    241       0.09      1.008
   973       HAL2    352   POPC    H2S    241       0.09      1.008
   974       CTL2    352   POPC     C3    242       0.08     12.011
   975       HAL2    352   POPC     HX    242       0.09      1.008
   976       HAL2    352   POPC     HY    242       0.09      1.008
   977        OSL    352   POPC    O31    242      -0.49    15.9994
   978         CL    352   POPC    C31    242        0.9     12.011
   979        OBL    352   POPC    O32    242      -0.63    15.9994
   980       CTL2    352   POPC    C32    242      -0.22     12.011
   981       HAL2    352   POPC    H2X    242       0.09      1.008
   982       HAL2    352   POPC    H2Y    242       0.09      1.008
   983       CTL2    352   POPC    C23    243      -0.18     12.011
   984       HAL2    352   POPC    H3R    243       0.09      1.008
   985       HAL2    352   POPC    H3S    243       0.09      1.008
   986       CTL2    352   POPC    C24    244      -0.18     12.011
   987       HAL2    352   POPC    H4R    244       0.09      1.008
   988       HAL2    352   POPC    H4S    244       0.09      1.008
   989       CTL2    352   POPC    C25    245      -0.18     12.011
   990       HAL2    352   POPC    H5R    245       0.09      1.008
   991       HAL2    352   POPC    H5S    245       0.09      1.008
   992       CTL2    352   POPC    C26    246      -0.18     12.011
   993       HAL2    352   POPC    H6R    246       0.09      1.008
   994       HAL2    352   POPC    H6S    246       0.09      1.008
   995       CTL2    352   POPC    C27    247      -0.18     12.011
   996       HAL2    352   POPC    H7R    247       0.09      1.008
   997       HAL2    352   POPC    H7S    247       0.09      1.008
   998       CTL2    352   POPC    C28    248      -0.18     12.011
   999       HAL2    352   POPC    H8R    248       0.09      1.008
  1000       HAL2    352   POPC    H8S    248       0.09      1.008
  1001       CEL1    352   POPC    C29    249      -0.15     12.011
  1002       HEL1    352   POPC    H91    249       0.15      1.008
  1003       CEL1    352   POPC   C210    250      -0.15     12.011
  1004       HEL1    352   POPC   H101    250       0.15      1.008
  1005       CTL2    352   POPC   C211    251      -0.18     12.011
  1006       HAL2    352   POPC   H11R    251       0.09      1.008
  1007       HAL2    352   POPC   H11S    251       0.09      1.008
  1008       CTL2    352   POPC   C212    252      -0.18     12.011
  1009       HAL2    352   POPC   H12R    252       0.09      1.008
  1010       HAL2    352   POPC   H12S    252       0.09      1.008
  1011       CTL2    352   POPC   C213    253      -0.18     12.011
  1012       HAL2    352   POPC   H13R    253       0.09      1.008
  1013       HAL2    352   POPC   H13S    253       0.09      1.008
  1014       CTL2    352   POPC   C214    254      -0.18     12.011
  1015       HAL2    352   POPC   H14R    254       0.09      1.008
  1016       HAL2    352   POPC   H14S    254       0.09      1.008
  1017       CTL2    352   POPC   C215    255      -0.18     12.011
  1018       HAL2    352   POPC   H15R    255       0.09      1.008
  1019       HAL2    352   POPC   H15S    255       0.09      1.008
  1020       CTL2    352   POPC   C216    256      -0.18     12.011
  1021       HAL2    352   POPC   H16R    256       0.09      1.008
  1022       HAL2    352   POPC   H16S    256       0.09      1.008
  1023       CTL2    352   POPC   C217    257      -0.18     12.011
  1024       HAL2    352   POPC   H17R    257       0.09      1.008
  1025       HAL2    352   POPC   H17S    257       0.09      1.008
  1026       CTL3    352   POPC   C218    258      -0.27     12.011
  1027       HAL3    352   POPC   H18R    258       0.09      1.008
  1028       HAL3    352   POPC   H18S    258       0.09      1.008
  1029       HAL3    352   POPC   H18T    258       0.09      1.008
  1030       CTL2    352   POPC    C33    259      -0.18     12.011
  1031       HAL2    352   POPC    H3X    259       0.09      1.008
  1032       HAL2    352   POPC    H3Y    259       0.09      1.008
  1033       CTL2    352   POPC    C34    260      -0.18     12.011
  1034       HAL2    352   POPC    H4X    260       0.09      1.008
  1035       HAL2    352   POPC    H4Y    260       0.09      1.008
  1036       CTL2    352   POPC    C35    261      -0.18     12.011
  1037       HAL2    352   POPC    H5X    261       0.09      1.008
  1038       HAL2    352   POPC    H5Y    261       0.09      1.008
  1039       CTL2    352   POPC    C36    262      -0.18     12.011
  1040       HAL2    352   POPC    H6X    262       0.09      1.008
  1041       HAL2    352   POPC    H6Y    262       0.09      1.008
  1042       CTL2    352   POPC    C37    263      -0.18     12.011
  1043       HAL2    352   POPC    H7X    263       0.09      1.008
  1044       HAL2    352   POPC    H7Y    263       0.09      1.008
  1045       CTL2    352   POPC    C38    264      -0.18     12.011
  1046       HAL2    352   POPC    H8X    264       0.09      1.008
  1047       HAL2    352   POPC    H8Y    264       0.09      1.008
  1048       CTL2    352   POPC    C39    265      -0.18     12.011
  1049       HAL2    352   POPC    H9X    265       0.09      1.008
  1050       HAL2    352   POPC    H9Y    265       0.09      1.008
  1051       CTL2    352   POPC   C310    266      -0.18     12.011
  1052       HAL2    352   POPC   H10X    266       0.09      1.008
  1053       HAL2    352   POPC   H10Y    266       0.09      1.008
  1054       CTL2    352   POPC   C311    267      -0.18     12.011
  1055       HAL2    352   POPC   H11X    267       0.09      1.008
  1056       HAL2    352   POPC   H11Y    267       0.09      1.008
  1057       CTL2    352   POPC   C312    268      -0.18     12.011
  1058       HAL2    352   POPC   H12X    268       0.09      1.008
  1059       HAL2    352   POPC   H12Y    268       0.09      1.008
  1060       CTL2    352   POPC   C313    269      -0.18     12.011
  1061       HAL2    352   POPC   H13X    269       0.09      1.008
  1062       HAL2    352   POPC   H13Y    269       0.09      1.008
  1063       CTL2    352   POPC   C314    270      -0.18     12.011
  1064       HAL2    352   POPC   H14X    270       0.09      1.008
  1065       HAL2    352   POPC   H14Y    270       0.09      1.008
  1066       CTL2    352   POPC   C315    271      -0.18     12.011
  1067       HAL2    352   POPC   H15X    271       0.09      1.008
  1068       HAL2    352   POPC   H15Y    271       0.09      1.008
  1069       CTL3    352   POPC   C316    272      -0.27     12.011
  1070       HAL3    352   POPC   H16X    272       0.09      1.008
  1071       HAL3    352   POPC   H16Y    272       0.09      1.008
  1072       HAL3    352   POPC   H16Z    272       0.09      1.008   ; qtot 0
; residue 353 POPC rtp POPC q  0.0
  1073        NTL    353   POPC      N    273       -0.6     14.007
  1074       CTL2    353   POPC    C12    273       -0.1     12.011
  1075         HL    353   POPC   H12A    273       0.25      1.008
  1076         HL    353   POPC   H12B    273       0.25      1.008
  1077       CTL5    353   POPC    C13    273      -0.35     12.011
  1078         HL    353   POPC   H13A    273       0.25      1.008
  1079         HL    353   POPC   H13B    273       0.25      1.008
  1080         HL    353   POPC   H13C    273       0.25      1.008
  1081       CTL5    353   POPC    C14    273      -0.35     12.011
  1082         HL    353   POPC   H14A    273       0.25      1.008
  1083         HL    353   POPC   H14B    273       0.25      1.008
  1084         HL    353   POPC   H14C    273       0.25      1.008
  1085       CTL5    353   POPC    C15    273      -0.35     12.011
  1086         HL    353   POPC   H15A    273       0.25      1.008
  1087         HL    353   POPC   H15B    273       0.25      1.008
  1088         HL    353   POPC   H15C    273       0.25      1.008
  1089       CTL2    353   POPC    C11    274      -0.08     12.011
  1090       HAL2    353   POPC   H11A    274       0.09      1.008
  1091       HAL2    353   POPC   H11B    274       0.09      1.008
  1092         PL    353   POPC      P    274        1.5     30.974
  1093        O2L    353   POPC    O13    274      -0.78    15.9994
  1094        O2L    353   POPC    O14    274      -0.78    15.9994
  1095       OSLP    353   POPC    O12    274      -0.57    15.9994
  1096       OSLP    353   POPC    O11    274      -0.57    15.9994
  1097       CTL2    353   POPC     C1    274      -0.08     12.011
  1098       HAL2    353   POPC     HA    274       0.09      1.008
  1099       HAL2    353   POPC     HB    274       0.09      1.008
  1100       CTL1    353   POPC     C2    275       0.17     12.011
  1101       HAL1    353   POPC     HS    275       0.09      1.008
  1102        OSL    353   POPC    O21    275      -0.49    15.9994
  1103         CL    353   POPC    C21    275        0.9     12.011
  1104        OBL    353   POPC    O22    275      -0.63    15.9994
  1105       CTL2    353   POPC    C22    275      -0.22     12.011
  1106       HAL2    353   POPC    H2R    275       0.09      1.008
  1107       HAL2    353   POPC    H2S    275       0.09      1.008
  1108       CTL2    353   POPC     C3    276       0.08     12.011
  1109       HAL2    353   POPC     HX    276       0.09      1.008
  1110       HAL2    353   POPC     HY    276       0.09      1.008
  1111        OSL    353   POPC    O31    276      -0.49    15.9994
  1112         CL    353   POPC    C31    276        0.9     12.011
  1113        OBL    353   POPC    O32    276      -0.63    15.9994
  1114       CTL2    353   POPC    C32    276      -0.22     12.011
  1115       HAL2    353   POPC    H2X    276       0.09      1.008
  1116       HAL2    353   POPC    H2Y    276       0.09      1.008
  1117       CTL2    353   POPC    C23    277      -0.18     12.011
  1118       HAL2    353   POPC    H3R    277       0.09      1.008
  1119       HAL2    353   POPC    H3S    277       0.09      1.008
  1120       CTL2    353   POPC    C24    278      -0.18     12.011
  1121       HAL2    353   POPC    H4R    278       0.09      1.008
  1122       HAL2    353   POPC    H4S    278       0.09      1.008
  1123       CTL2    353   POPC    C25    279      -0.18     12.011
  1124       HAL2    353   POPC    H5R    279       0.09      1.008
  1125       HAL2    353   POPC    H5S    279       0.09      1.008
  1126       CTL2    353   POPC    C26    280      -0.18     12.011
  1127       HAL2    353   POPC    H6R    280       0.09      1.008
  1128       HAL2    353   POPC    H6S    280       0.09      1.008
  1129       CTL2    353   POPC    C27    281      -0.18     12.011
  1130       HAL2    353   POPC    H7R    281       0.09      1.008
  1131       HAL2    353   POPC    H7S    281       0.09      1.008
  1132       CTL2    353   POPC    C28    282      -0.18     12.011
  1133       HAL2    353   POPC    H8R    282       0.09      1.008
  1134       HAL2    353   POPC    H8S    282       0.09      1.008
  1135       CEL1    353   POPC    C29    283      -0.15     12.011
  1136       HEL1    353   POPC    H91    283       0.15      1.008
  1137       CEL1    353   POPC   C210    284      -0.15     12.011
  1138       HEL1    353   POPC   H101    284       0.15      1.008
  1139       CTL2    353   POPC   C211    285      -0.18     12.011
  1140       HAL2    353   POPC   H11R    285       0.09      1.008
  1141       HAL2    353   POPC   H11S    285       0.09      1.008
  1142       CTL2    353   POPC   C212    286      -0.18     12.011
  1143       HAL2    353   POPC   H12R    286       0.09      1.008
  1144       HAL2    353   POPC   H12S    286       0.09      1.008
  1145       CTL2    353   POPC   C213    287      -0.18     12.011
  1146       HAL2    353   POPC   H13R    287       0.09      1.008
  1147       HAL2    353   POPC   H13S    287       0.09      1.008
  1148       CTL2    353   POPC   C214    288      -0.18     12.011
  1149       HAL2    353   POPC   H14R    288       0.09      1.008
  1150       HAL2    353   POPC   H14S    288       0.09      1.008
  1151       CTL2    353   POPC   C215    289      -0.18     12.011
  1152       HAL2    353   POPC   H15R    289       0.09      1.008
  1153       HAL2    353   POPC   H15S    289       0.09      1.008
  1154       CTL2    353   POPC   C216    290      -0.18     12.011
  1155       HAL2    353   POPC   H16R    290       0.09      1.008
  1156       HAL2    353   POPC   H16S    290       0.09      1.008
  1157       CTL2    353   POPC   C217    291      -0.18     12.011
  1158       HAL2    353   POPC   H17R    291       0.09      1.008
  1159       HAL2    353   POPC   H17S    291       0.09      1.008
  1160       CTL3    353   POPC   C218    292      -0.27     12.011
  1161       HAL3    353   POPC   H18R    292       0.09      1.008
  1162       HAL3    353   POPC   H18S    292       0.09      1.008
  1163       HAL3    353   POPC   H18T    292       0.09      1.008
  1164       CTL2    353   POPC    C33    293      -0.18     12.011
  1165       HAL2    353   POPC    H3X    293       0.09      1.008
  1166       HAL2    353   POPC    H3Y    293       0.09      1.008
  1167       CTL2    353   POPC    C34    294      -0.18     12.011
  1168       HAL2    353   POPC    H4X    294       0.09      1.008
  1169       HAL2    353   POPC    H4Y    294       0.09      1.008
  1170       CTL2    353   POPC    C35    295      -0.18     12.011
  1171       HAL2    353   POPC    H5X    295       0.09      1.008
  1172       HAL2    353   POPC    H5Y    295       0.09      1.008
  1173       CTL2    353   POPC    C36    296      -0.18     12.011
  1174       HAL2    353   POPC    H6X    296       0.09      1.008
  1175       HAL2    353   POPC    H6Y    296       0.09      1.008
  1176       CTL2    353   POPC    C37    297      -0.18     12.011
  1177       HAL2    353   POPC    H7X    297       0.09      1.008
  1178       HAL2    353   POPC    H7Y    297       0.09      1.008
  1179       CTL2    353   POPC    C38    298      -0.18     12.011
  1180       HAL2    353   POPC    H8X    298       0.09      1.008
  1181       HAL2    353   POPC    H8Y    298       0.09      1.008
  1182       CTL2    353   POPC    C39    299      -0.18     12.011
  1183       HAL2    353   POPC    H9X    299       0.09      1.008
  1184       HAL2    353   POPC    H9Y    299       0.09      1.008
  1185       CTL2    353   POPC   C310    300      -0.18     12.011
  1186       HAL2    353   POPC   H10X    300       0.09      1.008
  1187       HAL2    353   POPC   H10Y    300       0.09      1.008
  1188       CTL2    353   POPC   C311    301      -0.18     12.011
  1189       HAL2    353   POPC   H11X    301       0.09      1.008
  1190       HAL2    353   POPC   H11Y    301       0.09      1.008
  1191       CTL2    353   POPC   C312    302      -0.18     12.011
  1192       HAL2    353   POPC   H12X    302       0.09      1.008
  1193       HAL2    353   POPC   H12Y    302       0.09      1.008
  1194       CTL2    353   POPC   C313    303      -0.18     12.011
  1195       HAL2    353   POPC   H13X    303       0.09      1.008
  1196       HAL2    353   POPC   H13Y    303       0.09      1.008
  1197       CTL2    353   POPC   C314    304      -0.18     12.011
  1198       HAL2    353   POPC   H14X    304       0.09      1.008
  1199       HAL2    353   POPC   H14Y    304       0.09      1.008
  1200       CTL2    353   POPC   C315    305      -0.18     12.011
  1201       HAL2    353   POPC   H15X    305       0.09      1.008
  1202       HAL2    353   POPC   H15Y    305       0.09      1.008
  1203       CTL3    353   POPC   C316    306      -0.27     12.011
  1204       HAL3    353   POPC   H16X    306       0.09      1.008
  1205       HAL3    353   POPC   H16Y    306       0.09      1.008
  1206       HAL3    353   POPC   H16Z    306       0.09      1.008   ; qtot 0
; residue 354 POPC rtp POPC q  0.0
  1207        NTL    354   POPC      N    307       -0.6     14.007
  1208       CTL2    354   POPC    C12    307       -0.1     12.011
  1209         HL    354   POPC   H12A    307       0.25      1.008
  1210         HL    354   POPC   H12B    307       0.25      1.008
  1211       CTL5    354   POPC    C13    307      -0.35     12.011
  1212         HL    354   POPC   H13A    307       0.25      1.008
  1213         HL    354   POPC   H13B    307       0.25      1.008
  1214         HL    354   POPC   H13C    307       0.25      1.008
  1215       CTL5    354   POPC    C14    307      -0.35     12.011
  1216         HL    354   POPC   H14A    307       0.25      1.008
  1217         HL    354   POPC   H14B    307       0.25      1.008
  1218         HL    354   POPC   H14C    307       0.25      1.008
  1219       CTL5    354   POPC    C15    307      -0.35     12.011
  1220         HL    354   POPC   H15A    307       0.25      1.008
  1221         HL    354   POPC   H15B    307       0.25      1.008
  1222         HL    354   POPC   H15C    307       0.25      1.008
  1223       CTL2    354   POPC    C11    308      -0.08     12.011
  1224       HAL2    354   POPC   H11A    308       0.09      1.008
  1225       HAL2    354   POPC   H11B    308       0.09      1.008
  1226         PL    354   POPC      P    308        1.5     30.974
  1227        O2L    354   POPC    O13    308      -0.78    15.9994
  1228        O2L    354   POPC    O14    308      -0.78    15.9994
  1229       OSLP    354   POPC    O12    308      -0.57    15.9994
  1230       OSLP    354   POPC    O11    308      -0.57    15.9994
  1231       CTL2    354   POPC     C1    308      -0.08     12.011
  1232       HAL2    354   POPC     HA    308       0.09      1.008
  1233       HAL2    354   POPC     HB    308       0.09      1.008
  1234       CTL1    354   POPC     C2    309       0.17     12.011
  1235       HAL1    354   POPC     HS    309       0.09      1.008
  1236        OSL    354   POPC    O21    309      -0.49    15.9994
  1237         CL    354   POPC    C21    309        0.9     12.011
  1238        OBL    354   POPC    O22    309      -0.63    15.9994
  1239       CTL2    354   POPC    C22    309      -0.22     12.011
  1240       HAL2    354   POPC    H2R    309       0.09      1.008
  1241       HAL2    354   POPC    H2S    309       0.09      1.008
  1242       CTL2    354   POPC     C3    310       0.08     12.011
  1243       HAL2    354   POPC     HX    310       0.09      1.008
  1244       HAL2    354   POPC     HY    310       0.09      1.008
  1245        OSL    354   POPC    O31    310      -0.49    15.9994
  1246         CL    354   POPC    C31    310        0.9     12.011
  1247        OBL    354   POPC    O32    310      -0.63    15.9994
  1248       CTL2    354   POPC    C32    310      -0.22     12.011
  1249       HAL2    354   POPC    H2X    310       0.09      1.008
  1250       HAL2    354   POPC    H2Y    310       0.09      1.008
  1251       CTL2    354   POPC    C23    311      -0.18     12.011
  1252       HAL2    354   POPC    H3R    311       0.09      1.008
  1253       HAL2    354   POPC    H3S    311       0.09      1.008
  1254       CTL2    354   POPC    C24    312      -0.18     12.011
  1255       HAL2    354   POPC    H4R    312       0.09      1.008
  1256       HAL2    354   POPC    H4S    312       0.09      1.008
  1257       CTL2    354   POPC    C25    313      -0.18     12.011
  1258       HAL2    354   POPC    H5R    313       0.09      1.008
  1259       HAL2    354   POPC    H5S    313       0.09      1.008
  1260       CTL2    354   POPC    C26    314      -0.18     12.011
  1261       HAL2    354   POPC    H6R    314       0.09      1.008
  1262       HAL2    354   POPC    H6S    314       0.09      1.008
  1263       CTL2    354   POPC    C27    315      -0.18     12.011
  1264       HAL2    354   POPC    H7R    315       0.09      1.008
  1265       HAL2    354   POPC    H7S    315       0.09      1.008
  1266       CTL2    354   POPC    C28    316      -0.18     12.011
  1267       HAL2    354   POPC    H8R    316       0.09      1.008
  1268       HAL2    354   POPC    H8S    316       0.09      1.008
  1269       CEL1    354   POPC    C29    317      -0.15     12.011
  1270       HEL1    354   POPC    H91    317       0.15      1.008
  1271       CEL1    354   POPC   C210    318      -0.15     12.011
  1272       HEL1    354   POPC   H101    318       0.15      1.008
  1273       CTL2    354   POPC   C211    319      -0.18     12.011
  1274       HAL2    354   POPC   H11R    319       0.09      1.008
  1275       HAL2    354   POPC   H11S    319       0.09      1.008
  1276       CTL2    354   POPC   C212    320      -0.18     12.011
  1277       HAL2    354   POPC   H12R    320       0.09      1.008
  1278       HAL2    354   POPC   H12S    320       0.09      1.008
  1279       CTL2    354   POPC   C213    321      -0.18     12.011
  1280       HAL2    354   POPC   H13R    321       0.09      1.008
  1281       HAL2    354   POPC   H13S    321       0.09      1.008
  1282       CTL2    354   POPC   C214    322      -0.18     12.011
  1283       HAL2    354   POPC   H14R    322       0.09      1.008
  1284       HAL2    354   POPC   H14S    322       0.09      1.008
  1285       CTL2    354   POPC   C215    323      -0.18     12.011
  1286       HAL2    354   POPC   H15R    323       0.09      1.008
  1287       HAL2    354   POPC   H15S    323       0.09      1.008
  1288       CTL2    354   POPC   C216    324      -0.18     12.011
  1289       HAL2    354   POPC   H16R    324       0.09      1.008
  1290       HAL2    354   POPC   H16S    324       0.09      1.008
  1291       CTL2    354   POPC   C217    325      -0.18     12.011
  1292       HAL2    354   POPC   H17R    325       0.09      1.008
  1293       HAL2    354   POPC   H17S    325       0.09      1.008
  1294       CTL3    354   POPC   C218    326      -0.27     12.011
  1295       HAL3    354   POPC   H18R    326       0.09      1.008
  1296       HAL3    354   POPC   H18S    326       0.09      1.008
  1297       HAL3    354   POPC   H18T    326       0.09      1.008
  1298       CTL2    354   POPC    C33    327      -0.18     12.011
  1299       HAL2    354   POPC    H3X    327       0.09      1.008
  1300       HAL2    354   POPC    H3Y    327       0.09      1.008
  1301       CTL2    354   POPC    C34    328      -0.18     12.011
  1302       HAL2    354   POPC    H4X    328       0.09      1.008
  1303       HAL2    354   POPC    H4Y    328       0.09      1.008
  1304       CTL2    354   POPC    C35    329      -0.18     12.011
  1305       HAL2    354   POPC    H5X    329       0.09      1.008
  1306       HAL2    354   POPC    H5Y    329       0.09      1.008
  1307       CTL2    354   POPC    C36    330      -0.18     12.011
  1308       HAL2    354   POPC    H6X    330       0.09      1.008
  1309       HAL2    354   POPC    H6Y    330       0.09      1.008
  1310       CTL2    354   POPC    C37    331      -0.18     12.011
  1311       HAL2    354   POPC    H7X    331       0.09      1.008
  1312       HAL2    354   POPC    H7Y    331       0.09      1.008
  1313       CTL2    354   POPC    C38    332      -0.18     12.011
  1314       HAL2    354   POPC    H8X    332       0.09      1.008
  1315       HAL2    354   POPC    H8Y    332       0.09      1.008
  1316       CTL2    354   POPC    C39    333      -0.18     12.011
  1317       HAL2    354   POPC    H9X    333       0.09      1.008
  1318       HAL2    354   POPC    H9Y    333       0.09      1.008
  1319       CTL2    354   POPC   C310    334      -0.18     12.011
  1320       HAL2    354   POPC   H10X    334       0.09      1.008
  1321       HAL2    354   POPC   H10Y    334       0.09      1.008
  1322       CTL2    354   POPC   C311    335      -0.18     12.011
  1323       HAL2    354   POPC   H11X    335       0.09      1.008
  1324       HAL2    354   POPC   H11Y    335       0.09      1.008
  1325       CTL2    354   POPC   C312    336      -0.18     12.011
  1326       HAL2    354   POPC   H12X    336       0.09      1.008
  1327       HAL2    354   POPC   H12Y    336       0.09      1.008
  1328       CTL2    354   POPC   C313    337      -0.18     12.011
  1329       HAL2    354   POPC   H13X    337       0.09      1.008
  1330       HAL2    354   POPC   H13Y    337       0.09      1.008
  1331       CTL2    354   POPC   C314    338      -0.18     12.011
  1332       HAL2    354   POPC   H14X    338       0.09      1.008
  1333       HAL2    354   POPC   H14Y    338       0.09      1.008
  1334       CTL2    354   POPC   C315    339      -0.18     12.011
  1335       HAL2    354   POPC   H15X    339       0.09      1.008
  1336       HAL2    354   POPC   H15Y    339       0.09      1.008
  1337       CTL3    354   POPC   C316    340      -0.27     12.011
  1338       HAL3    354   POPC   H16X    340       0.09      1.008
  1339       HAL3    354   POPC   H16Y    340       0.09      1.008
  1340       HAL3    354   POPC   H16Z    340       0.09      1.008   ; qtot 0
; residue 355 POPC rtp POPC q  0.0
  1341        NTL    355   POPC      N    341       -0.6     14.007
  1342       CTL2    355   POPC    C12    341       -0.1     12.011
  1343         HL    355   POPC   H12A    341       0.25      1.008
  1344         HL    355   POPC   H12B    341       0.25      1.008
  1345       CTL5    355   POPC    C13    341      -0.35     12.011
  1346         HL    355   POPC   H13A    341       0.25      1.008
  1347         HL    355   POPC   H13B    341       0.25      1.008
  1348         HL    355   POPC   H13C    341       0.25      1.008
  1349       CTL5    355   POPC    C14    341      -0.35     12.011
  1350         HL    355   POPC   H14A    341       0.25      1.008
  1351         HL    355   POPC   H14B    341       0.25      1.008
  1352         HL    355   POPC   H14C    341       0.25      1.008
  1353       CTL5    355   POPC    C15    341      -0.35     12.011
  1354         HL    355   POPC   H15A    341       0.25      1.008
  1355         HL    355   POPC   H15B    341       0.25      1.008
  1356         HL    355   POPC   H15C    341       0.25      1.008
  1357       CTL2    355   POPC    C11    342      -0.08     12.011
  1358       HAL2    355   POPC   H11A    342       0.09      1.008
  1359       HAL2    355   POPC   H11B    342       0.09      1.008
  1360         PL    355   POPC      P    342        1.5     30.974
  1361        O2L    355   POPC    O13    342      -0.78    15.9994
  1362        O2L    355   POPC    O14    342      -0.78    15.9994
  1363       OSLP    355   POPC    O12    342      -0.57    15.9994
  1364       OSLP    355   POPC    O11    342      -0.57    15.9994
  1365       CTL2    355   POPC     C1    342      -0.08     12.011
  1366       HAL2    355   POPC     HA    342       0.09      1.008
  1367       HAL2    355   POPC     HB    342       0.09      1.008
  1368       CTL1    355   POPC     C2    343       0.17     12.011
  1369       HAL1    355   POPC     HS    343       0.09      1.008
  1370        OSL    355   POPC    O21    343      -0.49    15.9994
  1371         CL    355   POPC    C21    343        0.9     12.011
  1372        OBL    355   POPC    O22    343      -0.63    15.9994
  1373       CTL2    355   POPC    C22    343      -0.22     12.011
  1374       HAL2    355   POPC    H2R    343       0.09      1.008
  1375       HAL2    355   POPC    H2S    343       0.09      1.008
  1376       CTL2    355   POPC     C3    344       0.08     12.011
  1377       HAL2    355   POPC     HX    344       0.09      1.008
  1378       HAL2    355   POPC     HY    344       0.09      1.008
  1379        OSL    355   POPC    O31    344      -0.49    15.9994
  1380         CL    355   POPC    C31    344        0.9     12.011
  1381        OBL    355   POPC    O32    344      -0.63    15.9994
  1382       CTL2    355   POPC    C32    344      -0.22     12.011
  1383       HAL2    355   POPC    H2X    344       0.09      1.008
  1384       HAL2    355   POPC    H2Y    344       0.09      1.008
  1385       CTL2    355   POPC    C23    345      -0.18     12.011
  1386       HAL2    355   POPC    H3R    345       0.09      1.008
  1387       HAL2    355   POPC    H3S    345       0.09      1.008
  1388       CTL2    355   POPC    C24    346      -0.18     12.011
  1389       HAL2    355   POPC    H4R    346       0.09      1.008
  1390       HAL2    355   POPC    H4S    346       0.09      1.008
  1391       CTL2    355   POPC    C25    347      -0.18     12.011
  1392       HAL2    355   POPC    H5R    347       0.09      1.008
  1393       HAL2    355   POPC    H5S    347       0.09      1.008
  1394       CTL2    355   POPC    C26    348      -0.18     12.011
  1395       HAL2    355   POPC    H6R    348       0.09      1.008
  1396       HAL2    355   POPC    H6S    348       0.09      1.008
  1397       CTL2    355   POPC    C27    349      -0.18     12.011
  1398       HAL2    355   POPC    H7R    349       0.09      1.008
  1399       HAL2    355   POPC    H7S    349       0.09      1.008
  1400       CTL2    355   POPC    C28    350      -0.18     12.011
  1401       HAL2    355   POPC    H8R    350       0.09      1.008
  1402       HAL2    355   POPC    H8S    350       0.09      1.008
  1403       CEL1    355   POPC    C29    351      -0.15     12.011
  1404       HEL1    355   POPC    H91    351       0.15      1.008
  1405       CEL1    355   POPC   C210    352      -0.15     12.011
  1406       HEL1    355   POPC   H101    352       0.15      1.008
  1407       CTL2    355   POPC   C211    353      -0.18     12.011
  1408       HAL2    355   POPC   H11R    353       0.09      1.008
  1409       HAL2    355   POPC   H11S    353       0.09      1.008
  1410       CTL2    355   POPC   C212    354      -0.18     12.011
  1411       HAL2    355   POPC   H12R    354       0.09      1.008
  1412       HAL2    355   POPC   H12S    354       0.09      1.008
  1413       CTL2    355   POPC   C213    355      -0.18     12.011
  1414       HAL2    355   POPC   H13R    355       0.09      1.008
  1415       HAL2    355   POPC   H13S    355       0.09      1.008
  1416       CTL2    355   POPC   C214    356      -0.18     12.011
  1417       HAL2    355   POPC   H14R    356       0.09      1.008
  1418       HAL2    355   POPC   H14S    356       0.09      1.008
  1419       CTL2    355   POPC   C215    357      -0.18     12.011
  1420       HAL2    355   POPC   H15R    357       0.09      1.008
  1421       HAL2    355   POPC   H15S    357       0.09      1.008
  1422       CTL2    355   POPC   C216    358      -0.18     12.011
  1423       HAL2    355   POPC   H16R    358       0.09      1.008
  1424       HAL2    355   POPC   H16S    358       0.09      1.008
  1425       CTL2    355   POPC   C217    359      -0.18     12.011
  1426       HAL2    355   POPC   H17R    359       0.09      1.008
  1427       HAL2    355   POPC   H17S    359       0.09      1.008
  1428       CTL3    355   POPC   C218    360      -0.27     12.011
  1429       HAL3    355   POPC   H18R    360       0.09      1.008
  1430       HAL3    355   POPC   H18S    360       0.09      1.008
  1431       HAL3    355   POPC   H18T    360       0.09      1.008
  1432       CTL2    355   POPC    C33    361      -0.18     12.011
  1433       HAL2    355   POPC    H3X    361       0.09      1.008
  1434       HAL2    355   POPC    H3Y    361       0.09      1.008
  1435       CTL2    355   POPC    C34    362      -0.18     12.011
  1436       HAL2    355   POPC    H4X    362       0.09      1.008
  1437       HAL2    355   POPC    H4Y    362       0.09      1.008
  1438       CTL2    355   POPC    C35    363      -0.18     12.011
  1439       HAL2    355   POPC    H5X    363       0.09      1.008
  1440       HAL2    355   POPC    H5Y    363       0.09      1.008
  1441       CTL2    355   POPC    C36    364      -0.18     12.011
  1442       HAL2    355   POPC    H6X    364       0.09      1.008
  1443       HAL2    355   POPC    H6Y    364       0.09      1.008
  1444       CTL2    355   POPC    C37    365      -0.18     12.011
  1445       HAL2    355   POPC    H7X    365       0.09      1.008
  1446       HAL2    355   POPC    H7Y    365       0.09      1.008
  1447       CTL2    355   POPC    C38    366      -0.18     12.011
  1448       HAL2    355   POPC    H8X    366       0.09      1.008
  1449       HAL2    355   POPC    H8Y    366       0.09      1.008
  1450       CTL2    355   POPC    C39    367      -0.18     12.011
  1451       HAL2    355   POPC    H9X    367       0.09      1.008
  1452       HAL2    355   POPC    H9Y    367       0.09      1.008
  1453       CTL2    355   POPC   C310    368      -0.18     12.011
  1454       HAL2    355   POPC   H10X    368       0.09      1.008
  1455       HAL2    355   POPC   H10Y    368       0.09      1.008
  1456       CTL2    355   POPC   C311    369      -0.18     12.011
  1457       HAL2    355   POPC   H11X    369       0.09      1.008
  1458       HAL2    355   POPC   H11Y    369       0.09      1.008
  1459       CTL2    355   POPC   C312    370      -0.18     12.011
  1460       HAL2    355   POPC   H12X    370       0.09      1.008
  1461       HAL2    355   POPC   H12Y    370       0.09      1.008
  1462       CTL2    355   POPC   C313    371      -0.18     12.011
  1463       HAL2    355   POPC   H13X    371       0.09      1.008
  1464       HAL2    355   POPC   H13Y    371       0.09      1.008
  1465       CTL2    355   POPC   C314    372      -0.18     12.011
  1466       HAL2    355   POPC   H14X    372       0.09      1.008
  1467       HAL2    355   POPC   H14Y    372       0.09      1.008
  1468       CTL2    355   POPC   C315    373      -0.18     12.011
  1469       HAL2    355   POPC   H15X    373       0.09      1.008
  1470       HAL2    355   POPC   H15Y    373       0.09      1.008
  1471       CTL3    355   POPC   C316    374      -0.27     12.011
  1472       HAL3    355   POPC   H16X    374       0.09      1.008
  1473       HAL3    355   POPC   H16Y    374       0.09      1.008
  1474       HAL3    355   POPC   H16Z    374       0.09      1.008   ; qtot 0
; residue 356 POPC rtp POPC q  0.0
  1475        NTL    356   POPC      N    375       -0.6     14.007
  1476       CTL2    356   POPC    C12    375       -0.1     12.011
  1477         HL    356   POPC   H12A    375       0.25      1.008
  1478         HL    356   POPC   H12B    375       0.25      1.008
  1479       CTL5    356   POPC    C13    375      -0.35     12.011
  1480         HL    356   POPC   H13A    375       0.25      1.008
  1481         HL    356   POPC   H13B    375       0.25      1.008
  1482         HL    356   POPC   H13C    375       0.25      1.008
  1483       CTL5    356   POPC    C14    375      -0.35     12.011
  1484         HL    356   POPC   H14A    375       0.25      1.008
  1485         HL    356   POPC   H14B    375       0.25      1.008
  1486         HL    356   POPC   H14C    375       0.25      1.008
  1487       CTL5    356   POPC    C15    375      -0.35     12.011
  1488         HL    356   POPC   H15A    375       0.25      1.008
  1489         HL    356   POPC   H15B    375       0.25      1.008
  1490         HL    356   POPC   H15C    375       0.25      1.008
  1491       CTL2    356   POPC    C11    376      -0.08     12.011
  1492       HAL2    356   POPC   H11A    376       0.09      1.008
  1493       HAL2    356   POPC   H11B    376       0.09      1.008
  1494         PL    356   POPC      P    376        1.5     30.974
  1495        O2L    356   POPC    O13    376      -0.78    15.9994
  1496        O2L    356   POPC    O14    376      -0.78    15.9994
  1497       OSLP    356   POPC    O12    376      -0.57    15.9994
  1498       OSLP    356   POPC    O11    376      -0.57    15.9994
  1499       CTL2    356   POPC     C1    376      -0.08     12.011
  1500       HAL2    356   POPC     HA    376       0.09      1.008
  1501       HAL2    356   POPC     HB    376       0.09      1.008
  1502       CTL1    356   POPC     C2    377       0.17     12.011
  1503       HAL1    356   POPC     HS    377       0.09      1.008
  1504        OSL    356   POPC    O21    377      -0.49    15.9994
  1505         CL    356   POPC    C21    377        0.9     12.011
  1506        OBL    356   POPC    O22    377      -0.63    15.9994
  1507       CTL2    356   POPC    C22    377      -0.22     12.011
  1508       HAL2    356   POPC    H2R    377       0.09      1.008
  1509       HAL2    356   POPC    H2S    377       0.09      1.008
  1510       CTL2    356   POPC     C3    378       0.08     12.011
  1511       HAL2    356   POPC     HX    378       0.09      1.008
  1512       HAL2    356   POPC     HY    378       0.09      1.008
  1513        OSL    356   POPC    O31    378      -0.49    15.9994
  1514         CL    356   POPC    C31    378        0.9     12.011
  1515        OBL    356   POPC    O32    378      -0.63    15.9994
  1516       CTL2    356   POPC    C32    378      -0.22     12.011
  1517       HAL2    356   POPC    H2X    378       0.09      1.008
  1518       HAL2    356   POPC    H2Y    378       0.09      1.008
  1519       CTL2    356   POPC    C23    379      -0.18     12.011
  1520       HAL2    356   POPC    H3R    379       0.09      1.008
  1521       HAL2    356   POPC    H3S    379       0.09      1.008
  1522       CTL2    356   POPC    C24    380      -0.18     12.011
  1523       HAL2    356   POPC    H4R    380       0.09      1.008
  1524       HAL2    356   POPC    H4S    380       0.09      1.008
  1525       CTL2    356   POPC    C25    381      -0.18     12.011
  1526       HAL2    356   POPC    H5R    381       0.09      1.008
  1527       HAL2    356   POPC    H5S    381       0.09      1.008
  1528       CTL2    356   POPC    C26    382      -0.18     12.011
  1529       HAL2    356   POPC    H6R    382       0.09      1.008
  1530       HAL2    356   POPC    H6S    382       0.09      1.008
  1531       CTL2    356   POPC    C27    383      -0.18     12.011
  1532       HAL2    356   POPC    H7R    383       0.09      1.008
  1533       HAL2    356   POPC    H7S    383       0.09      1.008
  1534       CTL2    356   POPC    C28    384      -0.18     12.011
  1535       HAL2    356   POPC    H8R    384       0.09      1.008
  1536       HAL2    356   POPC    H8S    384       0.09      1.008
  1537       CEL1    356   POPC    C29    385      -0.15     12.011
  1538       HEL1    356   POPC    H91    385       0.15      1.008
  1539       CEL1    356   POPC   C210    386      -0.15     12.011
  1540       HEL1    356   POPC   H101    386       0.15      1.008
  1541       CTL2    356   POPC   C211    387      -0.18     12.011
  1542       HAL2    356   POPC   H11R    387       0.09      1.008
  1543       HAL2    356   POPC   H11S    387       0.09      1.008
  1544       CTL2    356   POPC   C212    388      -0.18     12.011
  1545       HAL2    356   POPC   H12R    388       0.09      1.008
  1546       HAL2    356   POPC   H12S    388       0.09      1.008
  1547       CTL2    356   POPC   C213    389      -0.18     12.011
  1548       HAL2    356   POPC   H13R    389       0.09      1.008
  1549       HAL2    356   POPC   H13S    389       0.09      1.008
  1550       CTL2    356   POPC   C214    390      -0.18     12.011
  1551       HAL2    356   POPC   H14R    390       0.09      1.008
  1552       HAL2    356   POPC   H14S    390       0.09      1.008
  1553       CTL2    356   POPC   C215    391      -0.18     12.011
  1554       HAL2    356   POPC   H15R    391       0.09      1.008
  1555       HAL2    356   POPC   H15S    391       0.09      1.008
  1556       CTL2    356   POPC   C216    392      -0.18     12.011
  1557       HAL2    356   POPC   H16R    392       0.09      1.008
  1558       HAL2    356   POPC   H16S    392       0.09      1.008
  1559       CTL2    356   POPC   C217    393      -0.18     12.011
  1560       HAL2    356   POPC   H17R    393       0.09      1.008
  1561       HAL2    356   POPC   H17S    393       0.09      1.008
  1562       CTL3    356   POPC   C218    394      -0.27     12.011
  1563       HAL3    356   POPC   H18R    394       0.09      1.008
  1564       HAL3    356   POPC   H18S    394       0.09      1.008
  1565       HAL3    356   POPC   H18T    394       0.09      1.008
  1566       CTL2    356   POPC    C33    395      -0.18     12.011
  1567       HAL2    356   POPC    H3X    395       0.09      1.008
  1568       HAL2    356   POPC    H3Y    395       0.09      1.008
  1569       CTL2    356   POPC    C34    396      -0.18     12.011
  1570       HAL2    356   POPC    H4X    396       0.09      1.008
  1571       HAL2    356   POPC    H4Y    396       0.09      1.008
  1572       CTL2    356   POPC    C35    397      -0.18     12.011
  1573       HAL2    356   POPC    H5X    397       0.09      1.008
  1574       HAL2    356   POPC    H5Y    397       0.09      1.008
  1575       CTL2    356   POPC    C36    398      -0.18     12.011
  1576       HAL2    356   POPC    H6X    398       0.09      1.008
  1577       HAL2    356   POPC    H6Y    398       0.09      1.008
  1578       CTL2    356   POPC    C37    399      -0.18     12.011
  1579       HAL2    356   POPC    H7X    399       0.09      1.008
  1580       HAL2    356   POPC    H7Y    399       0.09      1.008
  1581       CTL2    356   POPC    C38    400      -0.18     12.011
  1582       HAL2    356   POPC    H8X    400       0.09      1.008
  1583       HAL2    356   POPC    H8Y    400       0.09      1.008
  1584       CTL2    356   POPC    C39    401      -0.18     12.011
  1585       HAL2    356   POPC    H9X    401       0.09      1.008
  1586       HAL2    356   POPC    H9Y    401       0.09      1.008
  1587       CTL2    356   POPC   C310    402      -0.18     12.011
  1588       HAL2    356   POPC   H10X    402       0.09      1.008
  1589       HAL2    356   POPC   H10Y    402       0.09      1.008
  1590       CTL2    356   POPC   C311    403      -0.18     12.011
  1591       HAL2    356   POPC   H11X    403       0.09      1.008
  1592       HAL2    356   POPC   H11Y    403       0.09      1.008
  1593       CTL2    356   POPC   C312    404      -0.18     12.011
  1594       HAL2    356   POPC   H12X    404       0.09      1.008
  1595       HAL2    356   POPC   H12Y    404       0.09      1.008
  1596       CTL2    356   POPC   C313    405      -0.18     12.011
  1597       HAL2    356   POPC   H13X    405       0.09      1.008
  1598       HAL2    356   POPC   H13Y    405       0.09      1.008
  1599       CTL2    356   POPC   C314    406      -0.18     12.011
  1600       HAL2    356   POPC   H14X    406       0.09      1.008
  1601       HAL2    356   POPC   H14Y    406       0.09      1.008
  1602       CTL2    356   POPC   C315    407      -0.18     12.011
  1603       HAL2    356   POPC   H15X    407       0.09      1.008
  1604       HAL2    356   POPC   H15Y    407       0.09      1.008
  1605       CTL3    356   POPC   C316    408      -0.27     12.011
  1606       HAL3    356   POPC   H16X    408       0.09      1.008
  1607       HAL3    356   POPC   H16Y    408       0.09      1.008
  1608       HAL3    356   POPC   H16Z    408       0.09      1.008   ; qtot 0
; residue 357 POPC rtp POPC q  0.0
  1609        NTL    357   POPC      N    409       -0.6     14.007
  1610       CTL2    357   POPC    C12    409       -0.1     12.011
  1611         HL    357   POPC   H12A    409       0.25      1.008
  1612         HL    357   POPC   H12B    409       0.25      1.008
  1613       CTL5    357   POPC    C13    409      -0.35     12.011
  1614         HL    357   POPC   H13A    409       0.25      1.008
  1615         HL    357   POPC   H13B    409       0.25      1.008
  1616         HL    357   POPC   H13C    409       0.25      1.008
  1617       CTL5    357   POPC    C14    409      -0.35     12.011
  1618         HL    357   POPC   H14A    409       0.25      1.008
  1619         HL    357   POPC   H14B    409       0.25      1.008
  1620         HL    357   POPC   H14C    409       0.25      1.008
  1621       CTL5    357   POPC    C15    409      -0.35     12.011
  1622         HL    357   POPC   H15A    409       0.25      1.008
  1623         HL    357   POPC   H15B    409       0.25      1.008
  1624         HL    357   POPC   H15C    409       0.25      1.008
  1625       CTL2    357   POPC    C11    410      -0.08     12.011
  1626       HAL2    357   POPC   H11A    410       0.09      1.008
  1627       HAL2    357   POPC   H11B    410       0.09      1.008
  1628         PL    357   POPC      P    410        1.5     30.974
  1629        O2L    357   POPC    O13    410      -0.78    15.9994
  1630        O2L    357   POPC    O14    410      -0.78    15.9994
  1631       OSLP    357   POPC    O12    410      -0.57    15.9994
  1632       OSLP    357   POPC    O11    410      -0.57    15.9994
  1633       CTL2    357   POPC     C1    410      -0.08     12.011
  1634       HAL2    357   POPC     HA    410       0.09      1.008
  1635       HAL2    357   POPC     HB    410       0.09      1.008
  1636       CTL1    357   POPC     C2    411       0.17     12.011
  1637       HAL1    357   POPC     HS    411       0.09      1.008
  1638        OSL    357   POPC    O21    411      -0.49    15.9994
  1639         CL    357   POPC    C21    411        0.9     12.011
  1640        OBL    357   POPC    O22    411      -0.63    15.9994
  1641       CTL2    357   POPC    C22    411      -0.22     12.011
  1642       HAL2    357   POPC    H2R    411       0.09      1.008
  1643       HAL2    357   POPC    H2S    411       0.09      1.008
  1644       CTL2    357   POPC     C3    412       0.08     12.011
  1645       HAL2    357   POPC     HX    412       0.09      1.008
  1646       HAL2    357   POPC     HY    412       0.09      1.008
  1647        OSL    357   POPC    O31    412      -0.49    15.9994
  1648         CL    357   POPC    C31    412        0.9     12.011
  1649        OBL    357   POPC    O32    412      -0.63    15.9994
  1650       CTL2    357   POPC    C32    412      -0.22     12.011
  1651       HAL2    357   POPC    H2X    412       0.09      1.008
  1652       HAL2    357   POPC    H2Y    412       0.09      1.008
  1653       CTL2    357   POPC    C23    413      -0.18     12.011
  1654       HAL2    357   POPC    H3R    413       0.09      1.008
  1655       HAL2    357   POPC    H3S    413       0.09      1.008
  1656       CTL2    357   POPC    C24    414      -0.18     12.011
  1657       HAL2    357   POPC    H4R    414       0.09      1.008
  1658       HAL2    357   POPC    H4S    414       0.09      1.008
  1659       CTL2    357   POPC    C25    415      -0.18     12.011
  1660       HAL2    357   POPC    H5R    415       0.09      1.008
  1661       HAL2    357   POPC    H5S    415       0.09      1.008
  1662       CTL2    357   POPC    C26    416      -0.18     12.011
  1663       HAL2    357   POPC    H6R    416       0.09      1.008
  1664       HAL2    357   POPC    H6S    416       0.09      1.008
  1665       CTL2    357   POPC    C27    417      -0.18     12.011
  1666       HAL2    357   POPC    H7R    417       0.09      1.008
  1667       HAL2    357   POPC    H7S    417       0.09      1.008
  1668       CTL2    357   POPC    C28    418      -0.18     12.011
  1669       HAL2    357   POPC    H8R    418       0.09      1.008
  1670       HAL2    357   POPC    H8S    418       0.09      1.008
  1671       CEL1    357   POPC    C29    419      -0.15     12.011
  1672       HEL1    357   POPC    H91    419       0.15      1.008
  1673       CEL1    357   POPC   C210    420      -0.15     12.011
  1674       HEL1    357   POPC   H101    420       0.15      1.008
  1675       CTL2    357   POPC   C211    421      -0.18     12.011
  1676       HAL2    357   POPC   H11R    421       0.09      1.008
  1677       HAL2    357   POPC   H11S    421       0.09      1.008
  1678       CTL2    357   POPC   C212    422      -0.18     12.011
  1679       HAL2    357   POPC   H12R    422       0.09      1.008
  1680       HAL2    357   POPC   H12S    422       0.09      1.008
  1681       CTL2    357   POPC   C213    423      -0.18     12.011
  1682       HAL2    357   POPC   H13R    423       0.09      1.008
  1683       HAL2    357   POPC   H13S    423       0.09      1.008
  1684       CTL2    357   POPC   C214    424      -0.18     12.011
  1685       HAL2    357   POPC   H14R    424       0.09      1.008
  1686       HAL2    357   POPC   H14S    424       0.09      1.008
  1687       CTL2    357   POPC   C215    425      -0.18     12.011
  1688       HAL2    357   POPC   H15R    425       0.09      1.008
  1689       HAL2    357   POPC   H15S    425       0.09      1.008
  1690       CTL2    357   POPC   C216    426      -0.18     12.011
  1691       HAL2    357   POPC   H16R    426       0.09      1.008
  1692       HAL2    357   POPC   H16S    426       0.09      1.008
  1693       CTL2    357   POPC   C217    427      -0.18     12.011
  1694       HAL2    357   POPC   H17R    427       0.09      1.008
  1695       HAL2    357   POPC   H17S    427       0.09      1.008
  1696       CTL3    357   POPC   C218    428      -0.27     12.011
  1697       HAL3    357   POPC   H18R    428       0.09      1.008
  1698       HAL3    357   POPC   H18S    428       0.09      1.008
  1699       HAL3    357   POPC   H18T    428       0.09      1.008
  1700       CTL2    357   POPC    C33    429      -0.18     12.011
  1701       HAL2    357   POPC    H3X    429       0.09      1.008
  1702       HAL2    357   POPC    H3Y    429       0.09      1.008
  1703       CTL2    357   POPC    C34    430      -0.18     12.011
  1704       HAL2    357   POPC    H4X    430       0.09      1.008
  1705       HAL2    357   POPC    H4Y    430       0.09      1.008
  1706       CTL2    357   POPC    C35    431      -0.18     12.011
  1707       HAL2    357   POPC    H5X    431       0.09      1.008
  1708       HAL2    357   POPC    H5Y    431       0.09      1.008
  1709       CTL2    357   POPC    C36    432      -0.18     12.011
  1710       HAL2    357   POPC    H6X    432       0.09      1.008
  1711       HAL2    357   POPC    H6Y    432       0.09      1.008
  1712       CTL2    357   POPC    C37    433      -0.18     12.011
  1713       HAL2    357   POPC    H7X    433       0.09      1.008
  1714       HAL2    357   POPC    H7Y    433       0.09      1.008
  1715       CTL2    357   POPC    C38    434      -0.18     12.011
  1716       HAL2    357   POPC    H8X    434       0.09      1.008
  1717       HAL2    357   POPC    H8Y    434       0.09      1.008
  1718       CTL2    357   POPC    C39    435      -0.18     12.011
  1719       HAL2    357   POPC    H9X    435       0.09      1.008
  1720       HAL2    357   POPC    H9Y    435       0.09      1.008
  1721       CTL2    357   POPC   C310    436      -0.18     12.011
  1722       HAL2    357   POPC   H10X    436       0.09      1.008
  1723       HAL2    357   POPC   H10Y    436       0.09      1.008
  1724       CTL2    357   POPC   C311    437      -0.18     12.011
  1725       HAL2    357   POPC   H11X    437       0.09      1.008
  1726       HAL2    357   POPC   H11Y    437       0.09      1.008
  1727       CTL2    357   POPC   C312    438      -0.18     12.011
  1728       HAL2    357   POPC   H12X    438       0.09      1.008
  1729       HAL2    357   POPC   H12Y    438       0.09      1.008
  1730       CTL2    357   POPC   C313    439      -0.18     12.011
  1731       HAL2    357   POPC   H13X    439       0.09      1.008
  1732       HAL2    357   POPC   H13Y    439       0.09      1.008
  1733       CTL2    357   POPC   C314    440      -0.18     12.011
  1734       HAL2    357   POPC   H14X    440       0.09      1.008
  1735       HAL2    357   POPC   H14Y    440       0.09      1.008
  1736       CTL2    357   POPC   C315    441      -0.18     12.011
  1737       HAL2    357   POPC   H15X    441       0.09      1.008
  1738       HAL2    357   POPC   H15Y    441       0.09      1.008
  1739       CTL3    357   POPC   C316    442      -0.27     12.011
  1740       HAL3    357   POPC   H16X    442       0.09      1.008
  1741       HAL3    357   POPC   H16Y    442       0.09      1.008
  1742       HAL3    357   POPC   H16Z    442       0.09      1.008   ; qtot 0
; residue 358 POPC rtp POPC q  0.0
  1743        NTL    358   POPC      N    443       -0.6     14.007
  1744       CTL2    358   POPC    C12    443       -0.1     12.011
  1745         HL    358   POPC   H12A    443       0.25      1.008
  1746         HL    358   POPC   H12B    443       0.25      1.008
  1747       CTL5    358   POPC    C13    443      -0.35     12.011
  1748         HL    358   POPC   H13A    443       0.25      1.008
  1749         HL    358   POPC   H13B    443       0.25      1.008
  1750         HL    358   POPC   H13C    443       0.25      1.008
  1751       CTL5    358   POPC    C14    443      -0.35     12.011
  1752         HL    358   POPC   H14A    443       0.25      1.008
  1753         HL    358   POPC   H14B    443       0.25      1.008
  1754         HL    358   POPC   H14C    443       0.25      1.008
  1755       CTL5    358   POPC    C15    443      -0.35     12.011
  1756         HL    358   POPC   H15A    443       0.25      1.008
  1757         HL    358   POPC   H15B    443       0.25      1.008
  1758         HL    358   POPC   H15C    443       0.25      1.008
  1759       CTL2    358   POPC    C11    444      -0.08     12.011
  1760       HAL2    358   POPC   H11A    444       0.09      1.008
  1761       HAL2    358   POPC   H11B    444       0.09      1.008
  1762         PL    358   POPC      P    444        1.5     30.974
  1763        O2L    358   POPC    O13    444      -0.78    15.9994
  1764        O2L    358   POPC    O14    444      -0.78    15.9994
  1765       OSLP    358   POPC    O12    444      -0.57    15.9994
  1766       OSLP    358   POPC    O11    444      -0.57    15.9994
  1767       CTL2    358   POPC     C1    444      -0.08     12.011
  1768       HAL2    358   POPC     HA    444       0.09      1.008
  1769       HAL2    358   POPC     HB    444       0.09      1.008
  1770       CTL1    358   POPC     C2    445       0.17     12.011
  1771       HAL1    358   POPC     HS    445       0.09      1.008
  1772        OSL    358   POPC    O21    445      -0.49    15.9994
  1773         CL    358   POPC    C21    445        0.9     12.011
  1774        OBL    358   POPC    O22    445      -0.63    15.9994
  1775       CTL2    358   POPC    C22    445      -0.22     12.011
  1776       HAL2    358   POPC    H2R    445       0.09      1.008
  1777       HAL2    358   POPC    H2S    445       0.09      1.008
  1778       CTL2    358   POPC     C3    446       0.08     12.011
  1779       HAL2    358   POPC     HX    446       0.09      1.008
  1780       HAL2    358   POPC     HY    446       0.09      1.008
  1781        OSL    358   POPC    O31    446      -0.49    15.9994
  1782         CL    358   POPC    C31    446        0.9     12.011
  1783        OBL    358   POPC    O32    446      -0.63    15.9994
  1784       CTL2    358   POPC    C32    446      -0.22     12.011
  1785       HAL2    358   POPC    H2X    446       0.09      1.008
  1786       HAL2    358   POPC    H2Y    446       0.09      1.008
  1787       CTL2    358   POPC    C23    447      -0.18     12.011
  1788       HAL2    358   POPC    H3R    447       0.09      1.008
  1789       HAL2    358   POPC    H3S    447       0.09      1.008
  1790       CTL2    358   POPC    C24    448      -0.18     12.011
  1791       HAL2    358   POPC    H4R    448       0.09      1.008
  1792       HAL2    358   POPC    H4S    448       0.09      1.008
  1793       CTL2    358   POPC    C25    449      -0.18     12.011
  1794       HAL2    358   POPC    H5R    449       0.09      1.008
  1795       HAL2    358   POPC    H5S    449       0.09      1.008
  1796       CTL2    358   POPC    C26    450      -0.18     12.011
  1797       HAL2    358   POPC    H6R    450       0.09      1.008
  1798       HAL2    358   POPC    H6S    450       0.09      1.008
  1799       CTL2    358   POPC    C27    451      -0.18     12.011
  1800       HAL2    358   POPC    H7R    451       0.09      1.008
  1801       HAL2    358   POPC    H7S    451       0.09      1.008
  1802       CTL2    358   POPC    C28    452      -0.18     12.011
  1803       HAL2    358   POPC    H8R    452       0.09      1.008
  1804       HAL2    358   POPC    H8S    452       0.09      1.008
  1805       CEL1    358   POPC    C29    453      -0.15     12.011
  1806       HEL1    358   POPC    H91    453       0.15      1.008
  1807       CEL1    358   POPC   C210    454      -0.15     12.011
  1808       HEL1    358   POPC   H101    454       0.15      1.008
  1809       CTL2    358   POPC   C211    455      -0.18     12.011
  1810       HAL2    358   POPC   H11R    455       0.09      1.008
  1811       HAL2    358   POPC   H11S    455       0.09      1.008
  1812       CTL2    358   POPC   C212    456      -0.18     12.011
  1813       HAL2    358   POPC   H12R    456       0.09      1.008
  1814       HAL2    358   POPC   H12S    456       0.09      1.008
  1815       CTL2    358   POPC   C213    457      -0.18     12.011
  1816       HAL2    358   POPC   H13R    457       0.09      1.008
  1817       HAL2    358   POPC   H13S    457       0.09      1.008
  1818       CTL2    358   POPC   C214    458      -0.18     12.011
  1819       HAL2    358   POPC   H14R    458       0.09      1.008
  1820       HAL2    358   POPC   H14S    458       0.09      1.008
  1821       CTL2    358   POPC   C215    459      -0.18     12.011
  1822       HAL2    358   POPC   H15R    459       0.09      1.008
  1823       HAL2    358   POPC   H15S    459       0.09      1.008
  1824       CTL2    358   POPC   C216    460      -0.18     12.011
  1825       HAL2    358   POPC   H16R    460       0.09      1.008
  1826       HAL2    358   POPC   H16S    460       0.09      1.008
  1827       CTL2    358   POPC   C217    461      -0.18     12.011
  1828       HAL2    358   POPC   H17R    461       0.09      1.008
  1829       HAL2    358   POPC   H17S    461       0.09      1.008
  1830       CTL3    358   POPC   C218    462      -0.27     12.011
  1831       HAL3    358   POPC   H18R    462       0.09      1.008
  1832       HAL3    358   POPC   H18S    462       0.09      1.008
  1833       HAL3    358   POPC   H18T    462       0.09      1.008
  1834       CTL2    358   POPC    C33    463      -0.18     12.011
  1835       HAL2    358   POPC    H3X    463       0.09      1.008
  1836       HAL2    358   POPC    H3Y    463       0.09      1.008
  1837       CTL2    358   POPC    C34    464      -0.18     12.011
  1838       HAL2    358   POPC    H4X    464       0.09      1.008
  1839       HAL2    358   POPC    H4Y    464       0.09      1.008
  1840       CTL2    358   POPC    C35    465      -0.18     12.011
  1841       HAL2    358   POPC    H5X    465       0.09      1.008
  1842       HAL2    358   POPC    H5Y    465       0.09      1.008
  1843       CTL2    358   POPC    C36    466      -0.18     12.011
  1844       HAL2    358   POPC    H6X    466       0.09      1.008
  1845       HAL2    358   POPC    H6Y    466       0.09      1.008
  1846       CTL2    358   POPC    C37    467      -0.18     12.011
  1847       HAL2    358   POPC    H7X    467       0.09      1.008
  1848       HAL2    358   POPC    H7Y    467       0.09      1.008
  1849       CTL2    358   POPC    C38    468      -0.18     12.011
  1850       HAL2    358   POPC    H8X    468       0.09      1.008
  1851       HAL2    358   POPC    H8Y    468       0.09      1.008
  1852       CTL2    358   POPC    C39    469      -0.18     12.011
  1853       HAL2    358   POPC    H9X    469       0.09      1.008
  1854       HAL2    358   POPC    H9Y    469       0.09      1.008
  1855       CTL2    358   POPC   C310    470      -0.18     12.011
  1856       HAL2    358   POPC   H10X    470       0.09      1.008
  1857       HAL2    358   POPC   H10Y    470       0.09      1.008
  1858       CTL2    358   POPC   C311    471      -0.18     12.011
  1859       HAL2    358   POPC   H11X    471       0.09      1.008
  1860       HAL2    358   POPC   H11Y    471       0.09      1.008
  1861       CTL2    358   POPC   C312    472      -0.18     12.011
  1862       HAL2    358   POPC   H12X    472       0.09      1.008
  1863       HAL2    358   POPC   H12Y    472       0.09      1.008
  1864       CTL2    358   POPC   C313    473      -0.18     12.011
  1865       HAL2    358   POPC   H13X    473       0.09      1.008
  1866       HAL2    358   POPC   H13Y    473       0.09      1.008
  1867       CTL2    358   POPC   C314    474      -0.18     12.011
  1868       HAL2    358   POPC   H14X    474       0.09      1.008
  1869       HAL2    358   POPC   H14Y    474       0.09      1.008
  1870       CTL2    358   POPC   C315    475      -0.18     12.011
  1871       HAL2    358   POPC   H15X    475       0.09      1.008
  1872       HAL2    358   POPC   H15Y    475       0.09      1.008
  1873       CTL3    358   POPC   C316    476      -0.27     12.011
  1874       HAL3    358   POPC   H16X    476       0.09      1.008
  1875       HAL3    358   POPC   H16Y    476       0.09      1.008
  1876       HAL3    358   POPC   H16Z    476       0.09      1.008   ; qtot 0
; residue 359 POPC rtp POPC q  0.0
  1877        NTL    359   POPC      N    477       -0.6     14.007
  1878       CTL2    359   POPC    C12    477       -0.1     12.011
  1879         HL    359   POPC   H12A    477       0.25      1.008
  1880         HL    359   POPC   H12B    477       0.25      1.008
  1881       CTL5    359   POPC    C13    477      -0.35     12.011
  1882         HL    359   POPC   H13A    477       0.25      1.008
  1883         HL    359   POPC   H13B    477       0.25      1.008
  1884         HL    359   POPC   H13C    477       0.25      1.008
  1885       CTL5    359   POPC    C14    477      -0.35     12.011
  1886         HL    359   POPC   H14A    477       0.25      1.008
  1887         HL    359   POPC   H14B    477       0.25      1.008
  1888         HL    359   POPC   H14C    477       0.25      1.008
  1889       CTL5    359   POPC    C15    477      -0.35     12.011
  1890         HL    359   POPC   H15A    477       0.25      1.008
  1891         HL    359   POPC   H15B    477       0.25      1.008
  1892         HL    359   POPC   H15C    477       0.25      1.008
  1893       CTL2    359   POPC    C11    478      -0.08     12.011
  1894       HAL2    359   POPC   H11A    478       0.09      1.008
  1895       HAL2    359   POPC   H11B    478       0.09      1.008
  1896         PL    359   POPC      P    478        1.5     30.974
  1897        O2L    359   POPC    O13    478      -0.78    15.9994
  1898        O2L    359   POPC    O14    478      -0.78    15.9994
  1899       OSLP    359   POPC    O12    478      -0.57    15.9994
  1900       OSLP    359   POPC    O11    478      -0.57    15.9994
  1901       CTL2    359   POPC     C1    478      -0.08     12.011
  1902       HAL2    359   POPC     HA    478       0.09      1.008
  1903       HAL2    359   POPC     HB    478       0.09      1.008
  1904       CTL1    359   POPC     C2    479       0.17     12.011
  1905       HAL1    359   POPC     HS    479       0.09      1.008
  1906        OSL    359   POPC    O21    479      -0.49    15.9994
  1907         CL    359   POPC    C21    479        0.9     12.011
  1908        OBL    359   POPC    O22    479      -0.63    15.9994
  1909       CTL2    359   POPC    C22    479      -0.22     12.011
  1910       HAL2    359   POPC    H2R    479       0.09      1.008
  1911       HAL2    359   POPC    H2S    479       0.09      1.008
  1912       CTL2    359   POPC     C3    480       0.08     12.011
  1913       HAL2    359   POPC     HX    480       0.09      1.008
  1914       HAL2    359   POPC     HY    480       0.09      1.008
  1915        OSL    359   POPC    O31    480      -0.49    15.9994
  1916         CL    359   POPC    C31    480        0.9     12.011
  1917        OBL    359   POPC    O32    480      -0.63    15.9994
  1918       CTL2    359   POPC    C32    480      -0.22     12.011
  1919       HAL2    359   POPC    H2X    480       0.09      1.008
  1920       HAL2    359   POPC    H2Y    480       0.09      1.008
  1921       CTL2    359   POPC    C23    481      -0.18     12.011
  1922       HAL2    359   POPC    H3R    481       0.09      1.008
  1923       HAL2    359   POPC    H3S    481       0.09      1.008
  1924       CTL2    359   POPC    C24    482      -0.18     12.011
  1925       HAL2    359   POPC    H4R    482       0.09      1.008
  1926       HAL2    359   POPC    H4S    482       0.09      1.008
  1927       CTL2    359   POPC    C25    483      -0.18     12.011
  1928       HAL2    359   POPC    H5R    483       0.09      1.008
  1929       HAL2    359   POPC    H5S    483       0.09      1.008
  1930       CTL2    359   POPC    C26    484      -0.18     12.011
  1931       HAL2    359   POPC    H6R    484       0.09      1.008
  1932       HAL2    359   POPC    H6S    484       0.09      1.008
  1933       CTL2    359   POPC    C27    485      -0.18     12.011
  1934       HAL2    359   POPC    H7R    485       0.09      1.008
  1935       HAL2    359   POPC    H7S    485       0.09      1.008
  1936       CTL2    359   POPC    C28    486      -0.18     12.011
  1937       HAL2    359   POPC    H8R    486       0.09      1.008
  1938       HAL2    359   POPC    H8S    486       0.09      1.008
  1939       CEL1    359   POPC    C29    487      -0.15     12.011
  1940       HEL1    359   POPC    H91    487       0.15      1.008
  1941       CEL1    359   POPC   C210    488      -0.15     12.011
  1942       HEL1    359   POPC   H101    488       0.15      1.008
  1943       CTL2    359   POPC   C211    489      -0.18     12.011
  1944       HAL2    359   POPC   H11R    489       0.09      1.008
  1945       HAL2    359   POPC   H11S    489       0.09      1.008
  1946       CTL2    359   POPC   C212    490      -0.18     12.011
  1947       HAL2    359   POPC   H12R    490       0.09      1.008
  1948       HAL2    359   POPC   H12S    490       0.09      1.008
  1949       CTL2    359   POPC   C213    491      -0.18     12.011
  1950       HAL2    359   POPC   H13R    491       0.09      1.008
  1951       HAL2    359   POPC   H13S    491       0.09      1.008
  1952       CTL2    359   POPC   C214    492      -0.18     12.011
  1953       HAL2    359   POPC   H14R    492       0.09      1.008
  1954       HAL2    359   POPC   H14S    492       0.09      1.008
  1955       CTL2    359   POPC   C215    493      -0.18     12.011
  1956       HAL2    359   POPC   H15R    493       0.09      1.008
  1957       HAL2    359   POPC   H15S    493       0.09      1.008
  1958       CTL2    359   POPC   C216    494      -0.18     12.011
  1959       HAL2    359   POPC   H16R    494       0.09      1.008
  1960       HAL2    359   POPC   H16S    494       0.09      1.008
  1961       CTL2    359   POPC   C217    495      -0.18     12.011
  1962       HAL2    359   POPC   H17R    495       0.09      1.008
  1963       HAL2    359   POPC   H17S    495       0.09      1.008
  1964       CTL3    359   POPC   C218    496      -0.27     12.011
  1965       HAL3    359   POPC   H18R    496       0.09      1.008
  1966       HAL3    359   POPC   H18S    496       0.09      1.008
  1967       HAL3    359   POPC   H18T    496       0.09      1.008
  1968       CTL2    359   POPC    C33    497      -0.18     12.011
  1969       HAL2    359   POPC    H3X    497       0.09      1.008
  1970       HAL2    359   POPC    H3Y    497       0.09      1.008
  1971       CTL2    359   POPC    C34    498      -0.18     12.011
  1972       HAL2    359   POPC    H4X    498       0.09      1.008
  1973       HAL2    359   POPC    H4Y    498       0.09      1.008
  1974       CTL2    359   POPC    C35    499      -0.18     12.011
  1975       HAL2    359   POPC    H5X    499       0.09      1.008
  1976       HAL2    359   POPC    H5Y    499       0.09      1.008
  1977       CTL2    359   POPC    C36    500      -0.18     12.011
  1978       HAL2    359   POPC    H6X    500       0.09      1.008
  1979       HAL2    359   POPC    H6Y    500       0.09      1.008
  1980       CTL2    359   POPC    C37    501      -0.18     12.011
  1981       HAL2    359   POPC    H7X    501       0.09      1.008
  1982       HAL2    359   POPC    H7Y    501       0.09      1.008
  1983       CTL2    359   POPC    C38    502      -0.18     12.011
  1984       HAL2    359   POPC    H8X    502       0.09      1.008
  1985       HAL2    359   POPC    H8Y    502       0.09      1.008
  1986       CTL2    359   POPC    C39    503      -0.18     12.011
  1987       HAL2    359   POPC    H9X    503       0.09      1.008
  1988       HAL2    359   POPC    H9Y    503       0.09      1.008
  1989       CTL2    359   POPC   C310    504      -0.18     12.011
  1990       HAL2    359   POPC   H10X    504       0.09      1.008
  1991       HAL2    359   POPC   H10Y    504       0.09      1.008
  1992       CTL2    359   POPC   C311    505      -0.18     12.011
  1993       HAL2    359   POPC   H11X    505       0.09      1.008
  1994       HAL2    359   POPC   H11Y    505       0.09      1.008
  1995       CTL2    359   POPC   C312    506      -0.18     12.011
  1996       HAL2    359   POPC   H12X    506       0.09      1.008
  1997       HAL2    359   POPC   H12Y    506       0.09      1.008
  1998       CTL2    359   POPC   C313    507      -0.18     12.011
  1999       HAL2    359   POPC   H13X    507       0.09      1.008
  2000       HAL2    359   POPC   H13Y    507       0.09      1.008
  2001       CTL2    359   POPC   C314    508      -0.18     12.011
  2002       HAL2    359   POPC   H14X    508       0.09      1.008
  2003       HAL2    359   POPC   H14Y    508       0.09      1.008
  2004       CTL2    359   POPC   C315    509      -0.18     12.011
  2005       HAL2    359   POPC   H15X    509       0.09      1.008
  2006       HAL2    359   POPC   H15Y    509       0.09      1.008
  2007       CTL3    359   POPC   C316    510      -0.27     12.011
  2008       HAL3    359   POPC   H16X    510       0.09      1.008
  2009       HAL3    359   POPC   H16Y    510       0.09      1.008
  2010       HAL3    359   POPC   H16Z    510       0.09      1.008   ; qtot 0
; residue 360 POPC rtp POPC q  0.0
  2011        NTL    360   POPC      N    511       -0.6     14.007
  2012       CTL2    360   POPC    C12    511       -0.1     12.011
  2013         HL    360   POPC   H12A    511       0.25      1.008
  2014         HL    360   POPC   H12B    511       0.25      1.008
  2015       CTL5    360   POPC    C13    511      -0.35     12.011
  2016         HL    360   POPC   H13A    511       0.25      1.008
  2017         HL    360   POPC   H13B    511       0.25      1.008
  2018         HL    360   POPC   H13C    511       0.25      1.008
  2019       CTL5    360   POPC    C14    511      -0.35     12.011
  2020         HL    360   POPC   H14A    511       0.25      1.008
  2021         HL    360   POPC   H14B    511       0.25      1.008
  2022         HL    360   POPC   H14C    511       0.25      1.008
  2023       CTL5    360   POPC    C15    511      -0.35     12.011
  2024         HL    360   POPC   H15A    511       0.25      1.008
  2025         HL    360   POPC   H15B    511       0.25      1.008
  2026         HL    360   POPC   H15C    511       0.25      1.008
  2027       CTL2    360   POPC    C11    512      -0.08     12.011
  2028       HAL2    360   POPC   H11A    512       0.09      1.008
  2029       HAL2    360   POPC   H11B    512       0.09      1.008
  2030         PL    360   POPC      P    512        1.5     30.974
  2031        O2L    360   POPC    O13    512      -0.78    15.9994
  2032        O2L    360   POPC    O14    512      -0.78    15.9994
  2033       OSLP    360   POPC    O12    512      -0.57    15.9994
  2034       OSLP    360   POPC    O11    512      -0.57    15.9994
  2035       CTL2    360   POPC     C1    512      -0.08     12.011
  2036       HAL2    360   POPC     HA    512       0.09      1.008
  2037       HAL2    360   POPC     HB    512       0.09      1.008
  2038       CTL1    360   POPC     C2    513       0.17     12.011
  2039       HAL1    360   POPC     HS    513       0.09      1.008
  2040        OSL    360   POPC    O21    513      -0.49    15.9994
  2041         CL    360   POPC    C21    513        0.9     12.011
  2042        OBL    360   POPC    O22    513      -0.63    15.9994
  2043       CTL2    360   POPC    C22    513      -0.22     12.011
  2044       HAL2    360   POPC    H2R    513       0.09      1.008
  2045       HAL2    360   POPC    H2S    513       0.09      1.008
  2046       CTL2    360   POPC     C3    514       0.08     12.011
  2047       HAL2    360   POPC     HX    514       0.09      1.008
  2048       HAL2    360   POPC     HY    514       0.09      1.008
  2049        OSL    360   POPC    O31    514      -0.49    15.9994
  2050         CL    360   POPC    C31    514        0.9     12.011
  2051        OBL    360   POPC    O32    514      -0.63    15.9994
  2052       CTL2    360   POPC    C32    514      -0.22     12.011
  2053       HAL2    360   POPC    H2X    514       0.09      1.008
  2054       HAL2    360   POPC    H2Y    514       0.09      1.008
  2055       CTL2    360   POPC    C23    515      -0.18     12.011
  2056       HAL2    360   POPC    H3R    515       0.09      1.008
  2057       HAL2    360   POPC    H3S    515       0.09      1.008
  2058       CTL2    360   POPC    C24    516      -0.18     12.011
  2059       HAL2    360   POPC    H4R    516       0.09      1.008
  2060       HAL2    360   POPC    H4S    516       0.09      1.008
  2061       CTL2    360   POPC    C25    517      -0.18     12.011
  2062       HAL2    360   POPC    H5R    517       0.09      1.008
  2063       HAL2    360   POPC    H5S    517       0.09      1.008
  2064       CTL2    360   POPC    C26    518      -0.18     12.011
  2065       HAL2    360   POPC    H6R    518       0.09      1.008
  2066       HAL2    360   POPC    H6S    518       0.09      1.008
  2067       CTL2    360   POPC    C27    519      -0.18     12.011
  2068       HAL2    360   POPC    H7R    519       0.09      1.008
  2069       HAL2    360   POPC    H7S    519       0.09      1.008
  2070       CTL2    360   POPC    C28    520      -0.18     12.011
  2071       HAL2    360   POPC    H8R    520       0.09      1.008
  2072       HAL2    360   POPC    H8S    520       0.09      1.008
  2073       CEL1    360   POPC    C29    521      -0.15     12.011
  2074       HEL1    360   POPC    H91    521       0.15      1.008
  2075       CEL1    360   POPC   C210    522      -0.15     12.011
  2076       HEL1    360   POPC   H101    522       0.15      1.008
  2077       CTL2    360   POPC   C211    523      -0.18     12.011
  2078       HAL2    360   POPC   H11R    523       0.09      1.008
  2079       HAL2    360   POPC   H11S    523       0.09      1.008
  2080       CTL2    360   POPC   C212    524      -0.18     12.011
  2081       HAL2    360   POPC   H12R    524       0.09      1.008
  2082       HAL2    360   POPC   H12S    524       0.09      1.008
  2083       CTL2    360   POPC   C213    525      -0.18     12.011
  2084       HAL2    360   POPC   H13R    525       0.09      1.008
  2085       HAL2    360   POPC   H13S    525       0.09      1.008
  2086       CTL2    360   POPC   C214    526      -0.18     12.011
  2087       HAL2    360   POPC   H14R    526       0.09      1.008
  2088       HAL2    360   POPC   H14S    526       0.09      1.008
  2089       CTL2    360   POPC   C215    527      -0.18     12.011
  2090       HAL2    360   POPC   H15R    527       0.09      1.008
  2091       HAL2    360   POPC   H15S    527       0.09      1.008
  2092       CTL2    360   POPC   C216    528      -0.18     12.011
  2093       HAL2    360   POPC   H16R    528       0.09      1.008
  2094       HAL2    360   POPC   H16S    528       0.09      1.008
  2095       CTL2    360   POPC   C217    529      -0.18     12.011
  2096       HAL2    360   POPC   H17R    529       0.09      1.008
  2097       HAL2    360   POPC   H17S    529       0.09      1.008
  2098       CTL3    360   POPC   C218    530      -0.27     12.011
  2099       HAL3    360   POPC   H18R    530       0.09      1.008
  2100       HAL3    360   POPC   H18S    530       0.09      1.008
  2101       HAL3    360   POPC   H18T    530       0.09      1.008
  2102       CTL2    360   POPC    C33    531      -0.18     12.011
  2103       HAL2    360   POPC    H3X    531       0.09      1.008
  2104       HAL2    360   POPC    H3Y    531       0.09      1.008
  2105       CTL2    360   POPC    C34    532      -0.18     12.011
  2106       HAL2    360   POPC    H4X    532       0.09      1.008
  2107       HAL2    360   POPC    H4Y    532       0.09      1.008
  2108       CTL2    360   POPC    C35    533      -0.18     12.011
  2109       HAL2    360   POPC    H5X    533       0.09      1.008
  2110       HAL2    360   POPC    H5Y    533       0.09      1.008
  2111       CTL2    360   POPC    C36    534      -0.18     12.011
  2112       HAL2    360   POPC    H6X    534       0.09      1.008
  2113       HAL2    360   POPC    H6Y    534       0.09      1.008
  2114       CTL2    360   POPC    C37    535      -0.18     12.011
  2115       HAL2    360   POPC    H7X    535       0.09      1.008
  2116       HAL2    360   POPC    H7Y    535       0.09      1.008
  2117       CTL2    360   POPC    C38    536      -0.18     12.011
  2118       HAL2    360   POPC    H8X    536       0.09      1.008
  2119       HAL2    360   POPC    H8Y    536       0.09      1.008
  2120       CTL2    360   POPC    C39    537      -0.18     12.011
  2121       HAL2    360   POPC    H9X    537       0.09      1.008
  2122       HAL2    360   POPC    H9Y    537       0.09      1.008
  2123       CTL2    360   POPC   C310    538      -0.18     12.011
  2124       HAL2    360   POPC   H10X    538       0.09      1.008
  2125       HAL2    360   POPC   H10Y    538       0.09      1.008
  2126       CTL2    360   POPC   C311    539      -0.18     12.011
  2127       HAL2    360   POPC   H11X    539       0.09      1.008
  2128       HAL2    360   POPC   H11Y    539       0.09      1.008
  2129       CTL2    360   POPC   C312    540      -0.18     12.011
  2130       HAL2    360   POPC   H12X    540       0.09      1.008
  2131       HAL2    360   POPC   H12Y    540       0.09      1.008
  2132       CTL2    360   POPC   C313    541      -0.18     12.011
  2133       HAL2    360   POPC   H13X    541       0.09      1.008
  2134       HAL2    360   POPC   H13Y    541       0.09      1.008
  2135       CTL2    360   POPC   C314    542      -0.18     12.011
  2136       HAL2    360   POPC   H14X    542       0.09      1.008
  2137       HAL2    360   POPC   H14Y    542       0.09      1.008
  2138       CTL2    360   POPC   C315    543      -0.18     12.011
  2139       HAL2    360   POPC   H15X    543       0.09      1.008
  2140       HAL2    360   POPC   H15Y    543       0.09      1.008
  2141       CTL3    360   POPC   C316    544      -0.27     12.011
  2142       HAL3    360   POPC   H16X    544       0.09      1.008
  2143       HAL3    360   POPC   H16Y    544       0.09      1.008
  2144       HAL3    360   POPC   H16Z    544       0.09      1.008   ; qtot 0
; residue 361 POPC rtp POPC q  0.0
  2145        NTL    361   POPC      N    545       -0.6     14.007
  2146       CTL2    361   POPC    C12    545       -0.1     12.011
  2147         HL    361   POPC   H12A    545       0.25      1.008
  2148         HL    361   POPC   H12B    545       0.25      1.008
  2149       CTL5    361   POPC    C13    545      -0.35     12.011
  2150         HL    361   POPC   H13A    545       0.25      1.008
  2151         HL    361   POPC   H13B    545       0.25      1.008
  2152         HL    361   POPC   H13C    545       0.25      1.008
  2153       CTL5    361   POPC    C14    545      -0.35     12.011
  2154         HL    361   POPC   H14A    545       0.25      1.008
  2155         HL    361   POPC   H14B    545       0.25      1.008
  2156         HL    361   POPC   H14C    545       0.25      1.008
  2157       CTL5    361   POPC    C15    545      -0.35     12.011
  2158         HL    361   POPC   H15A    545       0.25      1.008
  2159         HL    361   POPC   H15B    545       0.25      1.008
  2160         HL    361   POPC   H15C    545       0.25      1.008
  2161       CTL2    361   POPC    C11    546      -0.08     12.011
  2162       HAL2    361   POPC   H11A    546       0.09      1.008
  2163       HAL2    361   POPC   H11B    546       0.09      1.008
  2164         PL    361   POPC      P    546        1.5     30.974
  2165        O2L    361   POPC    O13    546      -0.78    15.9994
  2166        O2L    361   POPC    O14    546      -0.78    15.9994
  2167       OSLP    361   POPC    O12    546      -0.57    15.9994
  2168       OSLP    361   POPC    O11    546      -0.57    15.9994
  2169       CTL2    361   POPC     C1    546      -0.08     12.011
  2170       HAL2    361   POPC     HA    546       0.09      1.008
  2171       HAL2    361   POPC     HB    546       0.09      1.008
  2172       CTL1    361   POPC     C2    547       0.17     12.011
  2173       HAL1    361   POPC     HS    547       0.09      1.008
  2174        OSL    361   POPC    O21    547      -0.49    15.9994
  2175         CL    361   POPC    C21    547        0.9     12.011
  2176        OBL    361   POPC    O22    547      -0.63    15.9994
  2177       CTL2    361   POPC    C22    547      -0.22     12.011
  2178       HAL2    361   POPC    H2R    547       0.09      1.008
  2179       HAL2    361   POPC    H2S    547       0.09      1.008
  2180       CTL2    361   POPC     C3    548       0.08     12.011
  2181       HAL2    361   POPC     HX    548       0.09      1.008
  2182       HAL2    361   POPC     HY    548       0.09      1.008
  2183        OSL    361   POPC    O31    548      -0.49    15.9994
  2184         CL    361   POPC    C31    548        0.9     12.011
  2185        OBL    361   POPC    O32    548      -0.63    15.9994
  2186       CTL2    361   POPC    C32    548      -0.22     12.011
  2187       HAL2    361   POPC    H2X    548       0.09      1.008
  2188       HAL2    361   POPC    H2Y    548       0.09      1.008
  2189       CTL2    361   POPC    C23    549      -0.18     12.011
  2190       HAL2    361   POPC    H3R    549       0.09      1.008
  2191       HAL2    361   POPC    H3S    549       0.09      1.008
  2192       CTL2    361   POPC    C24    550      -0.18     12.011
  2193       HAL2    361   POPC    H4R    550       0.09      1.008
  2194       HAL2    361   POPC    H4S    550       0.09      1.008
  2195       CTL2    361   POPC    C25    551      -0.18     12.011
  2196       HAL2    361   POPC    H5R    551       0.09      1.008
  2197       HAL2    361   POPC    H5S    551       0.09      1.008
  2198       CTL2    361   POPC    C26    552      -0.18     12.011
  2199       HAL2    361   POPC    H6R    552       0.09      1.008
  2200       HAL2    361   POPC    H6S    552       0.09      1.008
  2201       CTL2    361   POPC    C27    553      -0.18     12.011
  2202       HAL2    361   POPC    H7R    553       0.09      1.008
  2203       HAL2    361   POPC    H7S    553       0.09      1.008
  2204       CTL2    361   POPC    C28    554      -0.18     12.011
  2205       HAL2    361   POPC    H8R    554       0.09      1.008
  2206       HAL2    361   POPC    H8S    554       0.09      1.008
  2207       CEL1    361   POPC    C29    555      -0.15     12.011
  2208       HEL1    361   POPC    H91    555       0.15      1.008
  2209       CEL1    361   POPC   C210    556      -0.15     12.011
  2210       HEL1    361   POPC   H101    556       0.15      1.008
  2211       CTL2    361   POPC   C211    557      -0.18     12.011
  2212       HAL2    361   POPC   H11R    557       0.09      1.008
  2213       HAL2    361   POPC   H11S    557       0.09      1.008
  2214       CTL2    361   POPC   C212    558      -0.18     12.011
  2215       HAL2    361   POPC   H12R    558       0.09      1.008
  2216       HAL2    361   POPC   H12S    558       0.09      1.008
  2217       CTL2    361   POPC   C213    559      -0.18     12.011
  2218       HAL2    361   POPC   H13R    559       0.09      1.008
  2219       HAL2    361   POPC   H13S    559       0.09      1.008
  2220       CTL2    361   POPC   C214    560      -0.18     12.011
  2221       HAL2    361   POPC   H14R    560       0.09      1.008
  2222       HAL2    361   POPC   H14S    560       0.09      1.008
  2223       CTL2    361   POPC   C215    561      -0.18     12.011
  2224       HAL2    361   POPC   H15R    561       0.09      1.008
  2225       HAL2    361   POPC   H15S    561       0.09      1.008
  2226       CTL2    361   POPC   C216    562      -0.18     12.011
  2227       HAL2    361   POPC   H16R    562       0.09      1.008
  2228       HAL2    361   POPC   H16S    562       0.09      1.008
  2229       CTL2    361   POPC   C217    563      -0.18     12.011
  2230       HAL2    361   POPC   H17R    563       0.09      1.008
  2231       HAL2    361   POPC   H17S    563       0.09      1.008
  2232       CTL3    361   POPC   C218    564      -0.27     12.011
  2233       HAL3    361   POPC   H18R    564       0.09      1.008
  2234       HAL3    361   POPC   H18S    564       0.09      1.008
  2235       HAL3    361   POPC   H18T    564       0.09      1.008
  2236       CTL2    361   POPC    C33    565      -0.18     12.011
  2237       HAL2    361   POPC    H3X    565       0.09      1.008
  2238       HAL2    361   POPC    H3Y    565       0.09      1.008
  2239       CTL2    361   POPC    C34    566      -0.18     12.011
  2240       HAL2    361   POPC    H4X    566       0.09      1.008
  2241       HAL2    361   POPC    H4Y    566       0.09      1.008
  2242       CTL2    361   POPC    C35    567      -0.18     12.011
  2243       HAL2    361   POPC    H5X    567       0.09      1.008
  2244       HAL2    361   POPC    H5Y    567       0.09      1.008
  2245       CTL2    361   POPC    C36    568      -0.18     12.011
  2246       HAL2    361   POPC    H6X    568       0.09      1.008
  2247       HAL2    361   POPC    H6Y    568       0.09      1.008
  2248       CTL2    361   POPC    C37    569      -0.18     12.011
  2249       HAL2    361   POPC    H7X    569       0.09      1.008
  2250       HAL2    361   POPC    H7Y    569       0.09      1.008
  2251       CTL2    361   POPC    C38    570      -0.18     12.011
  2252       HAL2    361   POPC    H8X    570       0.09      1.008
  2253       HAL2    361   POPC    H8Y    570       0.09      1.008
  2254       CTL2    361   POPC    C39    571      -0.18     12.011
  2255       HAL2    361   POPC    H9X    571       0.09      1.008
  2256       HAL2    361   POPC    H9Y    571       0.09      1.008
  2257       CTL2    361   POPC   C310    572      -0.18     12.011
  2258       HAL2    361   POPC   H10X    572       0.09      1.008
  2259       HAL2    361   POPC   H10Y    572       0.09      1.008
  2260       CTL2    361   POPC   C311    573      -0.18     12.011
  2261       HAL2    361   POPC   H11X    573       0.09      1.008
  2262       HAL2    361   POPC   H11Y    573       0.09      1.008
  2263       CTL2    361   POPC   C312    574      -0.18     12.011
  2264       HAL2    361   POPC   H12X    574       0.09      1.008
  2265       HAL2    361   POPC   H12Y    574       0.09      1.008
  2266       CTL2    361   POPC   C313    575      -0.18     12.011
  2267       HAL2    361   POPC   H13X    575       0.09      1.008
  2268       HAL2    361   POPC   H13Y    575       0.09      1.008
  2269       CTL2    361   POPC   C314    576      -0.18     12.011
  2270       HAL2    361   POPC   H14X    576       0.09      1.008
  2271       HAL2    361   POPC   H14Y    576       0.09      1.008
  2272       CTL2    361   POPC   C315    577      -0.18     12.011
  2273       HAL2    361   POPC   H15X    577       0.09      1.008
  2274       HAL2    361   POPC   H15Y    577       0.09      1.008
  2275       CTL3    361   POPC   C316    578      -0.27     12.011
  2276       HAL3    361   POPC   H16X    578       0.09      1.008
  2277       HAL3    361   POPC   H16Y    578       0.09      1.008
  2278       HAL3    361   POPC   H16Z    578       0.09      1.008   ; qtot 0
; residue 362 POPC rtp POPC q  0.0
  2279        NTL    362   POPC      N    579       -0.6     14.007
  2280       CTL2    362   POPC    C12    579       -0.1     12.011
  2281         HL    362   POPC   H12A    579       0.25      1.008
  2282         HL    362   POPC   H12B    579       0.25      1.008
  2283       CTL5    362   POPC    C13    579      -0.35     12.011
  2284         HL    362   POPC   H13A    579       0.25      1.008
  2285         HL    362   POPC   H13B    579       0.25      1.008
  2286         HL    362   POPC   H13C    579       0.25      1.008
  2287       CTL5    362   POPC    C14    579      -0.35     12.011
  2288         HL    362   POPC   H14A    579       0.25      1.008
  2289         HL    362   POPC   H14B    579       0.25      1.008
  2290         HL    362   POPC   H14C    579       0.25      1.008
  2291       CTL5    362   POPC    C15    579      -0.35     12.011
  2292         HL    362   POPC   H15A    579       0.25      1.008
  2293         HL    362   POPC   H15B    579       0.25      1.008
  2294         HL    362   POPC   H15C    579       0.25      1.008
  2295       CTL2    362   POPC    C11    580      -0.08     12.011
  2296       HAL2    362   POPC   H11A    580       0.09      1.008
  2297       HAL2    362   POPC   H11B    580       0.09      1.008
  2298         PL    362   POPC      P    580        1.5     30.974
  2299        O2L    362   POPC    O13    580      -0.78    15.9994
  2300        O2L    362   POPC    O14    580      -0.78    15.9994
  2301       OSLP    362   POPC    O12    580      -0.57    15.9994
  2302       OSLP    362   POPC    O11    580      -0.57    15.9994
  2303       CTL2    362   POPC     C1    580      -0.08     12.011
  2304       HAL2    362   POPC     HA    580       0.09      1.008
  2305       HAL2    362   POPC     HB    580       0.09      1.008
  2306       CTL1    362   POPC     C2    581       0.17     12.011
  2307       HAL1    362   POPC     HS    581       0.09      1.008
  2308        OSL    362   POPC    O21    581      -0.49    15.9994
  2309         CL    362   POPC    C21    581        0.9     12.011
  2310        OBL    362   POPC    O22    581      -0.63    15.9994
  2311       CTL2    362   POPC    C22    581      -0.22     12.011
  2312       HAL2    362   POPC    H2R    581       0.09      1.008
  2313       HAL2    362   POPC    H2S    581       0.09      1.008
  2314       CTL2    362   POPC     C3    582       0.08     12.011
  2315       HAL2    362   POPC     HX    582       0.09      1.008
  2316       HAL2    362   POPC     HY    582       0.09      1.008
  2317        OSL    362   POPC    O31    582      -0.49    15.9994
  2318         CL    362   POPC    C31    582        0.9     12.011
  2319        OBL    362   POPC    O32    582      -0.63    15.9994
  2320       CTL2    362   POPC    C32    582      -0.22     12.011
  2321       HAL2    362   POPC    H2X    582       0.09      1.008
  2322       HAL2    362   POPC    H2Y    582       0.09      1.008
  2323       CTL2    362   POPC    C23    583      -0.18     12.011
  2324       HAL2    362   POPC    H3R    583       0.09      1.008
  2325       HAL2    362   POPC    H3S    583       0.09      1.008
  2326       CTL2    362   POPC    C24    584      -0.18     12.011
  2327       HAL2    362   POPC    H4R    584       0.09      1.008
  2328       HAL2    362   POPC    H4S    584       0.09      1.008
  2329       CTL2    362   POPC    C25    585      -0.18     12.011
  2330       HAL2    362   POPC    H5R    585       0.09      1.008
  2331       HAL2    362   POPC    H5S    585       0.09      1.008
  2332       CTL2    362   POPC    C26    586      -0.18     12.011
  2333       HAL2    362   POPC    H6R    586       0.09      1.008
  2334       HAL2    362   POPC    H6S    586       0.09      1.008
  2335       CTL2    362   POPC    C27    587      -0.18     12.011
  2336       HAL2    362   POPC    H7R    587       0.09      1.008
  2337       HAL2    362   POPC    H7S    587       0.09      1.008
  2338       CTL2    362   POPC    C28    588      -0.18     12.011
  2339       HAL2    362   POPC    H8R    588       0.09      1.008
  2340       HAL2    362   POPC    H8S    588       0.09      1.008
  2341       CEL1    362   POPC    C29    589      -0.15     12.011
  2342       HEL1    362   POPC    H91    589       0.15      1.008
  2343       CEL1    362   POPC   C210    590      -0.15     12.011
  2344       HEL1    362   POPC   H101    590       0.15      1.008
  2345       CTL2    362   POPC   C211    591      -0.18     12.011
  2346       HAL2    362   POPC   H11R    591       0.09      1.008
  2347       HAL2    362   POPC   H11S    591       0.09      1.008
  2348       CTL2    362   POPC   C212    592      -0.18     12.011
  2349       HAL2    362   POPC   H12R    592       0.09      1.008
  2350       HAL2    362   POPC   H12S    592       0.09      1.008
  2351       CTL2    362   POPC   C213    593      -0.18     12.011
  2352       HAL2    362   POPC   H13R    593       0.09      1.008
  2353       HAL2    362   POPC   H13S    593       0.09      1.008
  2354       CTL2    362   POPC   C214    594      -0.18     12.011
  2355       HAL2    362   POPC   H14R    594       0.09      1.008
  2356       HAL2    362   POPC   H14S    594       0.09      1.008
  2357       CTL2    362   POPC   C215    595      -0.18     12.011
  2358       HAL2    362   POPC   H15R    595       0.09      1.008
  2359       HAL2    362   POPC   H15S    595       0.09      1.008
  2360       CTL2    362   POPC   C216    596      -0.18     12.011
  2361       HAL2    362   POPC   H16R    596       0.09      1.008
  2362       HAL2    362   POPC   H16S    596       0.09      1.008
  2363       CTL2    362   POPC   C217    597      -0.18     12.011
  2364       HAL2    362   POPC   H17R    597       0.09      1.008
  2365       HAL2    362   POPC   H17S    597       0.09      1.008
  2366       CTL3    362   POPC   C218    598      -0.27     12.011
  2367       HAL3    362   POPC   H18R    598       0.09      1.008
  2368       HAL3    362   POPC   H18S    598       0.09      1.008
  2369       HAL3    362   POPC   H18T    598       0.09      1.008
  2370       CTL2    362   POPC    C33    599      -0.18     12.011
  2371       HAL2    362   POPC    H3X    599       0.09      1.008
  2372       HAL2    362   POPC    H3Y    599       0.09      1.008
  2373       CTL2    362   POPC    C34    600      -0.18     12.011
  2374       HAL2    362   POPC    H4X    600       0.09      1.008
  2375       HAL2    362   POPC    H4Y    600       0.09      1.008
  2376       CTL2    362   POPC    C35    601      -0.18     12.011
  2377       HAL2    362   POPC    H5X    601       0.09      1.008
  2378       HAL2    362   POPC    H5Y    601       0.09      1.008
  2379       CTL2    362   POPC    C36    602      -0.18     12.011
  2380       HAL2    362   POPC    H6X    602       0.09      1.008
  2381       HAL2    362   POPC    H6Y    602       0.09      1.008
  2382       CTL2    362   POPC    C37    603      -0.18     12.011
  2383       HAL2    362   POPC    H7X    603       0.09      1.008
  2384       HAL2    362   POPC    H7Y    603       0.09      1.008
  2385       CTL2    362   POPC    C38    604      -0.18     12.011
  2386       HAL2    362   POPC    H8X    604       0.09      1.008
  2387       HAL2    362   POPC    H8Y    604       0.09      1.008
  2388       CTL2    362   POPC    C39    605      -0.18     12.011
  2389       HAL2    362   POPC    H9X    605       0.09      1.008
  2390       HAL2    362   POPC    H9Y    605       0.09      1.008
  2391       CTL2    362   POPC   C310    606      -0.18     12.011
  2392       HAL2    362   POPC   H10X    606       0.09      1.008
  2393       HAL2    362   POPC   H10Y    606       0.09      1.008
  2394       CTL2    362   POPC   C311    607      -0.18     12.011
  2395       HAL2    362   POPC   H11X    607       0.09      1.008
  2396       HAL2    362   POPC   H11Y    607       0.09      1.008
  2397       CTL2    362   POPC   C312    608      -0.18     12.011
  2398       HAL2    362   POPC   H12X    608       0.09      1.008
  2399       HAL2    362   POPC   H12Y    608       0.09      1.008
  2400       CTL2    362   POPC   C313    609      -0.18     12.011
  2401       HAL2    362   POPC   H13X    609       0.09      1.008
  2402       HAL2    362   POPC   H13Y    609       0.09      1.008
  2403       CTL2    362   POPC   C314    610      -0.18     12.011
  2404       HAL2    362   POPC   H14X    610       0.09      1.008
  2405       HAL2    362   POPC   H14Y    610       0.09      1.008
  2406       CTL2    362   POPC   C315    611      -0.18     12.011
  2407       HAL2    362   POPC   H15X    611       0.09      1.008
  2408       HAL2    362   POPC   H15Y    611       0.09      1.008
  2409       CTL3    362   POPC   C316    612      -0.27     12.011
  2410       HAL3    362   POPC   H16X    612       0.09      1.008
  2411       HAL3    362   POPC   H16Y    612       0.09      1.008
  2412       HAL3    362   POPC   H16Z    612       0.09      1.008   ; qtot 0
; residue 363 POPC rtp POPC q  0.0
  2413        NTL    363   POPC      N    613       -0.6     14.007
  2414       CTL2    363   POPC    C12    613       -0.1     12.011
  2415         HL    363   POPC   H12A    613       0.25      1.008
  2416         HL    363   POPC   H12B    613       0.25      1.008
  2417       CTL5    363   POPC    C13    613      -0.35     12.011
  2418         HL    363   POPC   H13A    613       0.25      1.008
  2419         HL    363   POPC   H13B    613       0.25      1.008
  2420         HL    363   POPC   H13C    613       0.25      1.008
  2421       CTL5    363   POPC    C14    613      -0.35     12.011
  2422         HL    363   POPC   H14A    613       0.25      1.008
  2423         HL    363   POPC   H14B    613       0.25      1.008
  2424         HL    363   POPC   H14C    613       0.25      1.008
  2425       CTL5    363   POPC    C15    613      -0.35     12.011
  2426         HL    363   POPC   H15A    613       0.25      1.008
  2427         HL    363   POPC   H15B    613       0.25      1.008
  2428         HL    363   POPC   H15C    613       0.25      1.008
  2429       CTL2    363   POPC    C11    614      -0.08     12.011
  2430       HAL2    363   POPC   H11A    614       0.09      1.008
  2431       HAL2    363   POPC   H11B    614       0.09      1.008
  2432         PL    363   POPC      P    614        1.5     30.974
  2433        O2L    363   POPC    O13    614      -0.78    15.9994
  2434        O2L    363   POPC    O14    614      -0.78    15.9994
  2435       OSLP    363   POPC    O12    614      -0.57    15.9994
  2436       OSLP    363   POPC    O11    614      -0.57    15.9994
  2437       CTL2    363   POPC     C1    614      -0.08     12.011
  2438       HAL2    363   POPC     HA    614       0.09      1.008
  2439       HAL2    363   POPC     HB    614       0.09      1.008
  2440       CTL1    363   POPC     C2    615       0.17     12.011
  2441       HAL1    363   POPC     HS    615       0.09      1.008
  2442        OSL    363   POPC    O21    615      -0.49    15.9994
  2443         CL    363   POPC    C21    615        0.9     12.011
  2444        OBL    363   POPC    O22    615      -0.63    15.9994
  2445       CTL2    363   POPC    C22    615      -0.22     12.011
  2446       HAL2    363   POPC    H2R    615       0.09      1.008
  2447       HAL2    363   POPC    H2S    615       0.09      1.008
  2448       CTL2    363   POPC     C3    616       0.08     12.011
  2449       HAL2    363   POPC     HX    616       0.09      1.008
  2450       HAL2    363   POPC     HY    616       0.09      1.008
  2451        OSL    363   POPC    O31    616      -0.49    15.9994
  2452         CL    363   POPC    C31    616        0.9     12.011
  2453        OBL    363   POPC    O32    616      -0.63    15.9994
  2454       CTL2    363   POPC    C32    616      -0.22     12.011
  2455       HAL2    363   POPC    H2X    616       0.09      1.008
  2456       HAL2    363   POPC    H2Y    616       0.09      1.008
  2457       CTL2    363   POPC    C23    617      -0.18     12.011
  2458       HAL2    363   POPC    H3R    617       0.09      1.008
  2459       HAL2    363   POPC    H3S    617       0.09      1.008
  2460       CTL2    363   POPC    C24    618      -0.18     12.011
  2461       HAL2    363   POPC    H4R    618       0.09      1.008
  2462       HAL2    363   POPC    H4S    618       0.09      1.008
  2463       CTL2    363   POPC    C25    619      -0.18     12.011
  2464       HAL2    363   POPC    H5R    619       0.09      1.008
  2465       HAL2    363   POPC    H5S    619       0.09      1.008
  2466       CTL2    363   POPC    C26    620      -0.18     12.011
  2467       HAL2    363   POPC    H6R    620       0.09      1.008
  2468       HAL2    363   POPC    H6S    620       0.09      1.008
  2469       CTL2    363   POPC    C27    621      -0.18     12.011
  2470       HAL2    363   POPC    H7R    621       0.09      1.008
  2471       HAL2    363   POPC    H7S    621       0.09      1.008
  2472       CTL2    363   POPC    C28    622      -0.18     12.011
  2473       HAL2    363   POPC    H8R    622       0.09      1.008
  2474       HAL2    363   POPC    H8S    622       0.09      1.008
  2475       CEL1    363   POPC    C29    623      -0.15     12.011
  2476       HEL1    363   POPC    H91    623       0.15      1.008
  2477       CEL1    363   POPC   C210    624      -0.15     12.011
  2478       HEL1    363   POPC   H101    624       0.15      1.008
  2479       CTL2    363   POPC   C211    625      -0.18     12.011
  2480       HAL2    363   POPC   H11R    625       0.09      1.008
  2481       HAL2    363   POPC   H11S    625       0.09      1.008
  2482       CTL2    363   POPC   C212    626      -0.18     12.011
  2483       HAL2    363   POPC   H12R    626       0.09      1.008
  2484       HAL2    363   POPC   H12S    626       0.09      1.008
  2485       CTL2    363   POPC   C213    627      -0.18     12.011
  2486       HAL2    363   POPC   H13R    627       0.09      1.008
  2487       HAL2    363   POPC   H13S    627       0.09      1.008
  2488       CTL2    363   POPC   C214    628      -0.18     12.011
  2489       HAL2    363   POPC   H14R    628       0.09      1.008
  2490       HAL2    363   POPC   H14S    628       0.09      1.008
  2491       CTL2    363   POPC   C215    629      -0.18     12.011
  2492       HAL2    363   POPC   H15R    629       0.09      1.008
  2493       HAL2    363   POPC   H15S    629       0.09      1.008
  2494       CTL2    363   POPC   C216    630      -0.18     12.011
  2495       HAL2    363   POPC   H16R    630       0.09      1.008
  2496       HAL2    363   POPC   H16S    630       0.09      1.008
  2497       CTL2    363   POPC   C217    631      -0.18     12.011
  2498       HAL2    363   POPC   H17R    631       0.09      1.008
  2499       HAL2    363   POPC   H17S    631       0.09      1.008
  2500       CTL3    363   POPC   C218    632      -0.27     12.011
  2501       HAL3    363   POPC   H18R    632       0.09      1.008
  2502       HAL3    363   POPC   H18S    632       0.09      1.008
  2503       HAL3    363   POPC   H18T    632       0.09      1.008
  2504       CTL2    363   POPC    C33    633      -0.18     12.011
  2505       HAL2    363   POPC    H3X    633       0.09      1.008
  2506       HAL2    363   POPC    H3Y    633       0.09      1.008
  2507       CTL2    363   POPC    C34    634      -0.18     12.011
  2508       HAL2    363   POPC    H4X    634       0.09      1.008
  2509       HAL2    363   POPC    H4Y    634       0.09      1.008
  2510       CTL2    363   POPC    C35    635      -0.18     12.011
  2511       HAL2    363   POPC    H5X    635       0.09      1.008
  2512       HAL2    363   POPC    H5Y    635       0.09      1.008
  2513       CTL2    363   POPC    C36    636      -0.18     12.011
  2514       HAL2    363   POPC    H6X    636       0.09      1.008
  2515       HAL2    363   POPC    H6Y    636       0.09      1.008
  2516       CTL2    363   POPC    C37    637      -0.18     12.011
  2517       HAL2    363   POPC    H7X    637       0.09      1.008
  2518       HAL2    363   POPC    H7Y    637       0.09      1.008
  2519       CTL2    363   POPC    C38    638      -0.18     12.011
  2520       HAL2    363   POPC    H8X    638       0.09      1.008
  2521       HAL2    363   POPC    H8Y    638       0.09      1.008
  2522       CTL2    363   POPC    C39    639      -0.18     12.011
  2523       HAL2    363   POPC    H9X    639       0.09      1.008
  2524       HAL2    363   POPC    H9Y    639       0.09      1.008
  2525       CTL2    363   POPC   C310    640      -0.18     12.011
  2526       HAL2    363   POPC   H10X    640       0.09      1.008
  2527       HAL2    363   POPC   H10Y    640       0.09      1.008
  2528       CTL2    363   POPC   C311    641      -0.18     12.011
  2529       HAL2    363   POPC   H11X    641       0.09      1.008
  2530       HAL2    363   POPC   H11Y    641       0.09      1.008
  2531       CTL2    363   POPC   C312    642      -0.18     12.011
  2532       HAL2    363   POPC   H12X    642       0.09      1.008
  2533       HAL2    363   POPC   H12Y    642       0.09      1.008
  2534       CTL2    363   POPC   C313    643      -0.18     12.011
  2535       HAL2    363   POPC   H13X    643       0.09      1.008
  2536       HAL2    363   POPC   H13Y    643       0.09      1.008
  2537       CTL2    363   POPC   C314    644      -0.18     12.011
  2538       HAL2    363   POPC   H14X    644       0.09      1.008
  2539       HAL2    363   POPC   H14Y    644       0.09      1.008
  2540       CTL2    363   POPC   C315    645      -0.18     12.011
  2541       HAL2    363   POPC   H15X    645       0.09      1.008
  2542       HAL2    363   POPC   H15Y    645       0.09      1.008
  2543       CTL3    363   POPC   C316    646      -0.27     12.011
  2544       HAL3    363   POPC   H16X    646       0.09      1.008
  2545       HAL3    363   POPC   H16Y    646       0.09      1.008
  2546       HAL3    363   POPC   H16Z    646       0.09      1.008   ; qtot 0
; residue 364 POPC rtp POPC q  0.0
  2547        NTL    364   POPC      N    647       -0.6     14.007
  2548       CTL2    364   POPC    C12    647       -0.1     12.011
  2549         HL    364   POPC   H12A    647       0.25      1.008
  2550         HL    364   POPC   H12B    647       0.25      1.008
  2551       CTL5    364   POPC    C13    647      -0.35     12.011
  2552         HL    364   POPC   H13A    647       0.25      1.008
  2553         HL    364   POPC   H13B    647       0.25      1.008
  2554         HL    364   POPC   H13C    647       0.25      1.008
  2555       CTL5    364   POPC    C14    647      -0.35     12.011
  2556         HL    364   POPC   H14A    647       0.25      1.008
  2557         HL    364   POPC   H14B    647       0.25      1.008
  2558         HL    364   POPC   H14C    647       0.25      1.008
  2559       CTL5    364   POPC    C15    647      -0.35     12.011
  2560         HL    364   POPC   H15A    647       0.25      1.008
  2561         HL    364   POPC   H15B    647       0.25      1.008
  2562         HL    364   POPC   H15C    647       0.25      1.008
  2563       CTL2    364   POPC    C11    648      -0.08     12.011
  2564       HAL2    364   POPC   H11A    648       0.09      1.008
  2565       HAL2    364   POPC   H11B    648       0.09      1.008
  2566         PL    364   POPC      P    648        1.5     30.974
  2567        O2L    364   POPC    O13    648      -0.78    15.9994
  2568        O2L    364   POPC    O14    648      -0.78    15.9994
  2569       OSLP    364   POPC    O12    648      -0.57    15.9994
  2570       OSLP    364   POPC    O11    648      -0.57    15.9994
  2571       CTL2    364   POPC     C1    648      -0.08     12.011
  2572       HAL2    364   POPC     HA    648       0.09      1.008
  2573       HAL2    364   POPC     HB    648       0.09      1.008
  2574       CTL1    364   POPC     C2    649       0.17     12.011
  2575       HAL1    364   POPC     HS    649       0.09      1.008
  2576        OSL    364   POPC    O21    649      -0.49    15.9994
  2577         CL    364   POPC    C21    649        0.9     12.011
  2578        OBL    364   POPC    O22    649      -0.63    15.9994
  2579       CTL2    364   POPC    C22    649      -0.22     12.011
  2580       HAL2    364   POPC    H2R    649       0.09      1.008
  2581       HAL2    364   POPC    H2S    649       0.09      1.008
  2582       CTL2    364   POPC     C3    650       0.08     12.011
  2583       HAL2    364   POPC     HX    650       0.09      1.008
  2584       HAL2    364   POPC     HY    650       0.09      1.008
  2585        OSL    364   POPC    O31    650      -0.49    15.9994
  2586         CL    364   POPC    C31    650        0.9     12.011
  2587        OBL    364   POPC    O32    650      -0.63    15.9994
  2588       CTL2    364   POPC    C32    650      -0.22     12.011
  2589       HAL2    364   POPC    H2X    650       0.09      1.008
  2590       HAL2    364   POPC    H2Y    650       0.09      1.008
  2591       CTL2    364   POPC    C23    651      -0.18     12.011
  2592       HAL2    364   POPC    H3R    651       0.09      1.008
  2593       HAL2    364   POPC    H3S    651       0.09      1.008
  2594       CTL2    364   POPC    C24    652      -0.18     12.011
  2595       HAL2    364   POPC    H4R    652       0.09      1.008
  2596       HAL2    364   POPC    H4S    652       0.09      1.008
  2597       CTL2    364   POPC    C25    653      -0.18     12.011
  2598       HAL2    364   POPC    H5R    653       0.09      1.008
  2599       HAL2    364   POPC    H5S    653       0.09      1.008
  2600       CTL2    364   POPC    C26    654      -0.18     12.011
  2601       HAL2    364   POPC    H6R    654       0.09      1.008
  2602       HAL2    364   POPC    H6S    654       0.09      1.008
  2603       CTL2    364   POPC    C27    655      -0.18     12.011
  2604       HAL2    364   POPC    H7R    655       0.09      1.008
  2605       HAL2    364   POPC    H7S    655       0.09      1.008
  2606       CTL2    364   POPC    C28    656      -0.18     12.011
  2607       HAL2    364   POPC    H8R    656       0.09      1.008
  2608       HAL2    364   POPC    H8S    656       0.09      1.008
  2609       CEL1    364   POPC    C29    657      -0.15     12.011
  2610       HEL1    364   POPC    H91    657       0.15      1.008
  2611       CEL1    364   POPC   C210    658      -0.15     12.011
  2612       HEL1    364   POPC   H101    658       0.15      1.008
  2613       CTL2    364   POPC   C211    659      -0.18     12.011
  2614       HAL2    364   POPC   H11R    659       0.09      1.008
  2615       HAL2    364   POPC   H11S    659       0.09      1.008
  2616       CTL2    364   POPC   C212    660      -0.18     12.011
  2617       HAL2    364   POPC   H12R    660       0.09      1.008
  2618       HAL2    364   POPC   H12S    660       0.09      1.008
  2619       CTL2    364   POPC   C213    661      -0.18     12.011
  2620       HAL2    364   POPC   H13R    661       0.09      1.008
  2621       HAL2    364   POPC   H13S    661       0.09      1.008
  2622       CTL2    364   POPC   C214    662      -0.18     12.011
  2623       HAL2    364   POPC   H14R    662       0.09      1.008
  2624       HAL2    364   POPC   H14S    662       0.09      1.008
  2625       CTL2    364   POPC   C215    663      -0.18     12.011
  2626       HAL2    364   POPC   H15R    663       0.09      1.008
  2627       HAL2    364   POPC   H15S    663       0.09      1.008
  2628       CTL2    364   POPC   C216    664      -0.18     12.011
  2629       HAL2    364   POPC   H16R    664       0.09      1.008
  2630       HAL2    364   POPC   H16S    664       0.09      1.008
  2631       CTL2    364   POPC   C217    665      -0.18     12.011
  2632       HAL2    364   POPC   H17R    665       0.09      1.008
  2633       HAL2    364   POPC   H17S    665       0.09      1.008
  2634       CTL3    364   POPC   C218    666      -0.27     12.011
  2635       HAL3    364   POPC   H18R    666       0.09      1.008
  2636       HAL3    364   POPC   H18S    666       0.09      1.008
  2637       HAL3    364   POPC   H18T    666       0.09      1.008
  2638       CTL2    364   POPC    C33    667      -0.18     12.011
  2639       HAL2    364   POPC    H3X    667       0.09      1.008
  2640       HAL2    364   POPC    H3Y    667       0.09      1.008
  2641       CTL2    364   POPC    C34    668      -0.18     12.011
  2642       HAL2    364   POPC    H4X    668       0.09      1.008
  2643       HAL2    364   POPC    H4Y    668       0.09      1.008
  2644       CTL2    364   POPC    C35    669      -0.18     12.011
  2645       HAL2    364   POPC    H5X    669       0.09      1.008
  2646       HAL2    364   POPC    H5Y    669       0.09      1.008
  2647       CTL2    364   POPC    C36    670      -0.18     12.011
  2648       HAL2    364   POPC    H6X    670       0.09      1.008
  2649       HAL2    364   POPC    H6Y    670       0.09      1.008
  2650       CTL2    364   POPC    C37    671      -0.18     12.011
  2651       HAL2    364   POPC    H7X    671       0.09      1.008
  2652       HAL2    364   POPC    H7Y    671       0.09      1.008
  2653       CTL2    364   POPC    C38    672      -0.18     12.011
  2654       HAL2    364   POPC    H8X    672       0.09      1.008
  2655       HAL2    364   POPC    H8Y    672       0.09      1.008
  2656       CTL2    364   POPC    C39    673      -0.18     12.011
  2657       HAL2    364   POPC    H9X    673       0.09      1.008
  2658       HAL2    364   POPC    H9Y    673       0.09      1.008
  2659       CTL2    364   POPC   C310    674      -0.18     12.011
  2660       HAL2    364   POPC   H10X    674       0.09      1.008
  2661       HAL2    364   POPC   H10Y    674       0.09      1.008
  2662       CTL2    364   POPC   C311    675      -0.18     12.011
  2663       HAL2    364   POPC   H11X    675       0.09      1.008
  2664       HAL2    364   POPC   H11Y    675       0.09      1.008
  2665       CTL2    364   POPC   C312    676      -0.18     12.011
  2666       HAL2    364   POPC   H12X    676       0.09      1.008
  2667       HAL2    364   POPC   H12Y    676       0.09      1.008
  2668       CTL2    364   POPC   C313    677      -0.18     12.011
  2669       HAL2    364   POPC   H13X    677       0.09      1.008
  2670       HAL2    364   POPC   H13Y    677       0.09      1.008
  2671       CTL2    364   POPC   C314    678      -0.18     12.011
  2672       HAL2    364   POPC   H14X    678       0.09      1.008
  2673       HAL2    364   POPC   H14Y    678       0.09      1.008
  2674       CTL2    364   POPC   C315    679      -0.18     12.011
  2675       HAL2    364   POPC   H15X    679       0.09      1.008
  2676       HAL2    364   POPC   H15Y    679       0.09      1.008
  2677       CTL3    364   POPC   C316    680      -0.27     12.011
  2678       HAL3    364   POPC   H16X    680       0.09      1.008
  2679       HAL3    364   POPC   H16Y    680       0.09      1.008
  2680       HAL3    364   POPC   H16Z    680       0.09      1.008   ; qtot 0
; residue 365 POPC rtp POPC q  0.0
  2681        NTL    365   POPC      N    681       -0.6     14.007
  2682       CTL2    365   POPC    C12    681       -0.1     12.011
  2683         HL    365   POPC   H12A    681       0.25      1.008
  2684         HL    365   POPC   H12B    681       0.25      1.008
  2685       CTL5    365   POPC    C13    681      -0.35     12.011
  2686         HL    365   POPC   H13A    681       0.25      1.008
  2687         HL    365   POPC   H13B    681       0.25      1.008
  2688         HL    365   POPC   H13C    681       0.25      1.008
  2689       CTL5    365   POPC    C14    681      -0.35     12.011
  2690         HL    365   POPC   H14A    681       0.25      1.008
  2691         HL    365   POPC   H14B    681       0.25      1.008
  2692         HL    365   POPC   H14C    681       0.25      1.008
  2693       CTL5    365   POPC    C15    681      -0.35     12.011
  2694         HL    365   POPC   H15A    681       0.25      1.008
  2695         HL    365   POPC   H15B    681       0.25      1.008
  2696         HL    365   POPC   H15C    681       0.25      1.008
  2697       CTL2    365   POPC    C11    682      -0.08     12.011
  2698       HAL2    365   POPC   H11A    682       0.09      1.008
  2699       HAL2    365   POPC   H11B    682       0.09      1.008
  2700         PL    365   POPC      P    682        1.5     30.974
  2701        O2L    365   POPC    O13    682      -0.78    15.9994
  2702        O2L    365   POPC    O14    682      -0.78    15.9994
  2703       OSLP    365   POPC    O12    682      -0.57    15.9994
  2704       OSLP    365   POPC    O11    682      -0.57    15.9994
  2705       CTL2    365   POPC     C1    682      -0.08     12.011
  2706       HAL2    365   POPC     HA    682       0.09      1.008
  2707       HAL2    365   POPC     HB    682       0.09      1.008
  2708       CTL1    365   POPC     C2    683       0.17     12.011
  2709       HAL1    365   POPC     HS    683       0.09      1.008
  2710        OSL    365   POPC    O21    683      -0.49    15.9994
  2711         CL    365   POPC    C21    683        0.9     12.011
  2712        OBL    365   POPC    O22    683      -0.63    15.9994
  2713       CTL2    365   POPC    C22    683      -0.22     12.011
  2714       HAL2    365   POPC    H2R    683       0.09      1.008
  2715       HAL2    365   POPC    H2S    683       0.09      1.008
  2716       CTL2    365   POPC     C3    684       0.08     12.011
  2717       HAL2    365   POPC     HX    684       0.09      1.008
  2718       HAL2    365   POPC     HY    684       0.09      1.008
  2719        OSL    365   POPC    O31    684      -0.49    15.9994
  2720         CL    365   POPC    C31    684        0.9     12.011
  2721        OBL    365   POPC    O32    684      -0.63    15.9994
  2722       CTL2    365   POPC    C32    684      -0.22     12.011
  2723       HAL2    365   POPC    H2X    684       0.09      1.008
  2724       HAL2    365   POPC    H2Y    684       0.09      1.008
  2725       CTL2    365   POPC    C23    685      -0.18     12.011
  2726       HAL2    365   POPC    H3R    685       0.09      1.008
  2727       HAL2    365   POPC    H3S    685       0.09      1.008
  2728       CTL2    365   POPC    C24    686      -0.18     12.011
  2729       HAL2    365   POPC    H4R    686       0.09      1.008
  2730       HAL2    365   POPC    H4S    686       0.09      1.008
  2731       CTL2    365   POPC    C25    687      -0.18     12.011
  2732       HAL2    365   POPC    H5R    687       0.09      1.008
  2733       HAL2    365   POPC    H5S    687       0.09      1.008
  2734       CTL2    365   POPC    C26    688      -0.18     12.011
  2735       HAL2    365   POPC    H6R    688       0.09      1.008
  2736       HAL2    365   POPC    H6S    688       0.09      1.008
  2737       CTL2    365   POPC    C27    689      -0.18     12.011
  2738       HAL2    365   POPC    H7R    689       0.09      1.008
  2739       HAL2    365   POPC    H7S    689       0.09      1.008
  2740       CTL2    365   POPC    C28    690      -0.18     12.011
  2741       HAL2    365   POPC    H8R    690       0.09      1.008
  2742       HAL2    365   POPC    H8S    690       0.09      1.008
  2743       CEL1    365   POPC    C29    691      -0.15     12.011
  2744       HEL1    365   POPC    H91    691       0.15      1.008
  2745       CEL1    365   POPC   C210    692      -0.15     12.011
  2746       HEL1    365   POPC   H101    692       0.15      1.008
  2747       CTL2    365   POPC   C211    693      -0.18     12.011
  2748       HAL2    365   POPC   H11R    693       0.09      1.008
  2749       HAL2    365   POPC   H11S    693       0.09      1.008
  2750       CTL2    365   POPC   C212    694      -0.18     12.011
  2751       HAL2    365   POPC   H12R    694       0.09      1.008
  2752       HAL2    365   POPC   H12S    694       0.09      1.008
  2753       CTL2    365   POPC   C213    695      -0.18     12.011
  2754       HAL2    365   POPC   H13R    695       0.09      1.008
  2755       HAL2    365   POPC   H13S    695       0.09      1.008
  2756       CTL2    365   POPC   C214    696      -0.18     12.011
  2757       HAL2    365   POPC   H14R    696       0.09      1.008
  2758       HAL2    365   POPC   H14S    696       0.09      1.008
  2759       CTL2    365   POPC   C215    697      -0.18     12.011
  2760       HAL2    365   POPC   H15R    697       0.09      1.008
  2761       HAL2    365   POPC   H15S    697       0.09      1.008
  2762       CTL2    365   POPC   C216    698      -0.18     12.011
  2763       HAL2    365   POPC   H16R    698       0.09      1.008
  2764       HAL2    365   POPC   H16S    698       0.09      1.008
  2765       CTL2    365   POPC   C217    699      -0.18     12.011
  2766       HAL2    365   POPC   H17R    699       0.09      1.008
  2767       HAL2    365   POPC   H17S    699       0.09      1.008
  2768       CTL3    365   POPC   C218    700      -0.27     12.011
  2769       HAL3    365   POPC   H18R    700       0.09      1.008
  2770       HAL3    365   POPC   H18S    700       0.09      1.008
  2771       HAL3    365   POPC   H18T    700       0.09      1.008
  2772       CTL2    365   POPC    C33    701      -0.18     12.011
  2773       HAL2    365   POPC    H3X    701       0.09      1.008
  2774       HAL2    365   POPC    H3Y    701       0.09      1.008
  2775       CTL2    365   POPC    C34    702      -0.18     12.011
  2776       HAL2    365   POPC    H4X    702       0.09      1.008
  2777       HAL2    365   POPC    H4Y    702       0.09      1.008
  2778       CTL2    365   POPC    C35    703      -0.18     12.011
  2779       HAL2    365   POPC    H5X    703       0.09      1.008
  2780       HAL2    365   POPC    H5Y    703       0.09      1.008
  2781       CTL2    365   POPC    C36    704      -0.18     12.011
  2782       HAL2    365   POPC    H6X    704       0.09      1.008
  2783       HAL2    365   POPC    H6Y    704       0.09      1.008
  2784       CTL2    365   POPC    C37    705      -0.18     12.011
  2785       HAL2    365   POPC    H7X    705       0.09      1.008
  2786       HAL2    365   POPC    H7Y    705       0.09      1.008
  2787       CTL2    365   POPC    C38    706      -0.18     12.011
  2788       HAL2    365   POPC    H8X    706       0.09      1.008
  2789       HAL2    365   POPC    H8Y    706       0.09      1.008
  2790       CTL2    365   POPC    C39    707      -0.18     12.011
  2791       HAL2    365   POPC    H9X    707       0.09      1.008
  2792       HAL2    365   POPC    H9Y    707       0.09      1.008
  2793       CTL2    365   POPC   C310    708      -0.18     12.011
  2794       HAL2    365   POPC   H10X    708       0.09      1.008
  2795       HAL2    365   POPC   H10Y    708       0.09      1.008
  2796       CTL2    365   POPC   C311    709      -0.18     12.011
  2797       HAL2    365   POPC   H11X    709       0.09      1.008
  2798       HAL2    365   POPC   H11Y    709       0.09      1.008
  2799       CTL2    365   POPC   C312    710      -0.18     12.011
  2800       HAL2    365   POPC   H12X    710       0.09      1.008
  2801       HAL2    365   POPC   H12Y    710       0.09      1.008
  2802       CTL2    365   POPC   C313    711      -0.18     12.011
  2803       HAL2    365   POPC   H13X    711       0.09      1.008
  2804       HAL2    365   POPC   H13Y    711       0.09      1.008
  2805       CTL2    365   POPC   C314    712      -0.18     12.011
  2806       HAL2    365   POPC   H14X    712       0.09      1.008
  2807       HAL2    365   POPC   H14Y    712       0.09      1.008
  2808       CTL2    365   POPC   C315    713      -0.18     12.011
  2809       HAL2    365   POPC   H15X    713       0.09      1.008
  2810       HAL2    365   POPC   H15Y    713       0.09      1.008
  2811       CTL3    365   POPC   C316    714      -0.27     12.011
  2812       HAL3    365   POPC   H16X    714       0.09      1.008
  2813       HAL3    365   POPC   H16Y    714       0.09      1.008
  2814       HAL3    365   POPC   H16Z    714       0.09      1.008   ; qtot 0
; residue 366 POPC rtp POPC q  0.0
  2815        NTL    366   POPC      N    715       -0.6     14.007
  2816       CTL2    366   POPC    C12    715       -0.1     12.011
  2817         HL    366   POPC   H12A    715       0.25      1.008
  2818         HL    366   POPC   H12B    715       0.25      1.008
  2819       CTL5    366   POPC    C13    715      -0.35     12.011
  2820         HL    366   POPC   H13A    715       0.25      1.008
  2821         HL    366   POPC   H13B    715       0.25      1.008
  2822         HL    366   POPC   H13C    715       0.25      1.008
  2823       CTL5    366   POPC    C14    715      -0.35     12.011
  2824         HL    366   POPC   H14A    715       0.25      1.008
  2825         HL    366   POPC   H14B    715       0.25      1.008
  2826         HL    366   POPC   H14C    715       0.25      1.008
  2827       CTL5    366   POPC    C15    715      -0.35     12.011
  2828         HL    366   POPC   H15A    715       0.25      1.008
  2829         HL    366   POPC   H15B    715       0.25      1.008
  2830         HL    366   POPC   H15C    715       0.25      1.008
  2831       CTL2    366   POPC    C11    716      -0.08     12.011
  2832       HAL2    366   POPC   H11A    716       0.09      1.008
  2833       HAL2    366   POPC   H11B    716       0.09      1.008
  2834         PL    366   POPC      P    716        1.5     30.974
  2835        O2L    366   POPC    O13    716      -0.78    15.9994
  2836        O2L    366   POPC    O14    716      -0.78    15.9994
  2837       OSLP    366   POPC    O12    716      -0.57    15.9994
  2838       OSLP    366   POPC    O11    716      -0.57    15.9994
  2839       CTL2    366   POPC     C1    716      -0.08     12.011
  2840       HAL2    366   POPC     HA    716       0.09      1.008
  2841       HAL2    366   POPC     HB    716       0.09      1.008
  2842       CTL1    366   POPC     C2    717       0.17     12.011
  2843       HAL1    366   POPC     HS    717       0.09      1.008
  2844        OSL    366   POPC    O21    717      -0.49    15.9994
  2845         CL    366   POPC    C21    717        0.9     12.011
  2846        OBL    366   POPC    O22    717      -0.63    15.9994
  2847       CTL2    366   POPC    C22    717      -0.22     12.011
  2848       HAL2    366   POPC    H2R    717       0.09      1.008
  2849       HAL2    366   POPC    H2S    717       0.09      1.008
  2850       CTL2    366   POPC     C3    718       0.08     12.011
  2851       HAL2    366   POPC     HX    718       0.09      1.008
  2852       HAL2    366   POPC     HY    718       0.09      1.008
  2853        OSL    366   POPC    O31    718      -0.49    15.9994
  2854         CL    366   POPC    C31    718        0.9     12.011
  2855        OBL    366   POPC    O32    718      -0.63    15.9994
  2856       CTL2    366   POPC    C32    718      -0.22     12.011
  2857       HAL2    366   POPC    H2X    718       0.09      1.008
  2858       HAL2    366   POPC    H2Y    718       0.09      1.008
  2859       CTL2    366   POPC    C23    719      -0.18     12.011
  2860       HAL2    366   POPC    H3R    719       0.09      1.008
  2861       HAL2    366   POPC    H3S    719       0.09      1.008
  2862       CTL2    366   POPC    C24    720      -0.18     12.011
  2863       HAL2    366   POPC    H4R    720       0.09      1.008
  2864       HAL2    366   POPC    H4S    720       0.09      1.008
  2865       CTL2    366   POPC    C25    721      -0.18     12.011
  2866       HAL2    366   POPC    H5R    721       0.09      1.008
  2867       HAL2    366   POPC    H5S    721       0.09      1.008
  2868       CTL2    366   POPC    C26    722      -0.18     12.011
  2869       HAL2    366   POPC    H6R    722       0.09      1.008
  2870       HAL2    366   POPC    H6S    722       0.09      1.008
  2871       CTL2    366   POPC    C27    723      -0.18     12.011
  2872       HAL2    366   POPC    H7R    723       0.09      1.008
  2873       HAL2    366   POPC    H7S    723       0.09      1.008
  2874       CTL2    366   POPC    C28    724      -0.18     12.011
  2875       HAL2    366   POPC    H8R    724       0.09      1.008
  2876       HAL2    366   POPC    H8S    724       0.09      1.008
  2877       CEL1    366   POPC    C29    725      -0.15     12.011
  2878       HEL1    366   POPC    H91    725       0.15      1.008
  2879       CEL1    366   POPC   C210    726      -0.15     12.011
  2880       HEL1    366   POPC   H101    726       0.15      1.008
  2881       CTL2    366   POPC   C211    727      -0.18     12.011
  2882       HAL2    366   POPC   H11R    727       0.09      1.008
  2883       HAL2    366   POPC   H11S    727       0.09      1.008
  2884       CTL2    366   POPC   C212    728      -0.18     12.011
  2885       HAL2    366   POPC   H12R    728       0.09      1.008
  2886       HAL2    366   POPC   H12S    728       0.09      1.008
  2887       CTL2    366   POPC   C213    729      -0.18     12.011
  2888       HAL2    366   POPC   H13R    729       0.09      1.008
  2889       HAL2    366   POPC   H13S    729       0.09      1.008
  2890       CTL2    366   POPC   C214    730      -0.18     12.011
  2891       HAL2    366   POPC   H14R    730       0.09      1.008
  2892       HAL2    366   POPC   H14S    730       0.09      1.008
  2893       CTL2    366   POPC   C215    731      -0.18     12.011
  2894       HAL2    366   POPC   H15R    731       0.09      1.008
  2895       HAL2    366   POPC   H15S    731       0.09      1.008
  2896       CTL2    366   POPC   C216    732      -0.18     12.011
  2897       HAL2    366   POPC   H16R    732       0.09      1.008
  2898       HAL2    366   POPC   H16S    732       0.09      1.008
  2899       CTL2    366   POPC   C217    733      -0.18     12.011
  2900       HAL2    366   POPC   H17R    733       0.09      1.008
  2901       HAL2    366   POPC   H17S    733       0.09      1.008
  2902       CTL3    366   POPC   C218    734      -0.27     12.011
  2903       HAL3    366   POPC   H18R    734       0.09      1.008
  2904       HAL3    366   POPC   H18S    734       0.09      1.008
  2905       HAL3    366   POPC   H18T    734       0.09      1.008
  2906       CTL2    366   POPC    C33    735      -0.18     12.011
  2907       HAL2    366   POPC    H3X    735       0.09      1.008
  2908       HAL2    366   POPC    H3Y    735       0.09      1.008
  2909       CTL2    366   POPC    C34    736      -0.18     12.011
  2910       HAL2    366   POPC    H4X    736       0.09      1.008
  2911       HAL2    366   POPC    H4Y    736       0.09      1.008
  2912       CTL2    366   POPC    C35    737      -0.18     12.011
  2913       HAL2    366   POPC    H5X    737       0.09      1.008
  2914       HAL2    366   POPC    H5Y    737       0.09      1.008
  2915       CTL2    366   POPC    C36    738      -0.18     12.011
  2916       HAL2    366   POPC    H6X    738       0.09      1.008
  2917       HAL2    366   POPC    H6Y    738       0.09      1.008
  2918       CTL2    366   POPC    C37    739      -0.18     12.011
  2919       HAL2    366   POPC    H7X    739       0.09      1.008
  2920       HAL2    366   POPC    H7Y    739       0.09      1.008
  2921       CTL2    366   POPC    C38    740      -0.18     12.011
  2922       HAL2    366   POPC    H8X    740       0.09      1.008
  2923       HAL2    366   POPC    H8Y    740       0.09      1.008
  2924       CTL2    366   POPC    C39    741      -0.18     12.011
  2925       HAL2    366   POPC    H9X    741       0.09      1.008
  2926       HAL2    366   POPC    H9Y    741       0.09      1.008
  2927       CTL2    366   POPC   C310    742      -0.18     12.011
  2928       HAL2    366   POPC   H10X    742       0.09      1.008
  2929       HAL2    366   POPC   H10Y    742       0.09      1.008
  2930       CTL2    366   POPC   C311    743      -0.18     12.011
  2931       HAL2    366   POPC   H11X    743       0.09      1.008
  2932       HAL2    366   POPC   H11Y    743       0.09      1.008
  2933       CTL2    366   POPC   C312    744      -0.18     12.011
  2934       HAL2    366   POPC   H12X    744       0.09      1.008
  2935       HAL2    366   POPC   H12Y    744       0.09      1.008
  2936       CTL2    366   POPC   C313    745      -0.18     12.011
  2937       HAL2    366   POPC   H13X    745       0.09      1.008
  2938       HAL2    366   POPC   H13Y    745       0.09      1.008
  2939       CTL2    366   POPC   C314    746      -0.18     12.011
  2940       HAL2    366   POPC   H14X    746       0.09      1.008
  2941       HAL2    366   POPC   H14Y    746       0.09      1.008
  2942       CTL2    366   POPC   C315    747      -0.18     12.011
  2943       HAL2    366   POPC   H15X    747       0.09      1.008
  2944       HAL2    366   POPC   H15Y    747       0.09      1.008
  2945       CTL3    366   POPC   C316    748      -0.27     12.011
  2946       HAL3    366   POPC   H16X    748       0.09      1.008
  2947       HAL3    366   POPC   H16Y    748       0.09      1.008
  2948       HAL3    366   POPC   H16Z    748       0.09      1.008   ; qtot 0
; residue 367 POPC rtp POPC q  0.0
  2949        NTL    367   POPC      N    749       -0.6     14.007
  2950       CTL2    367   POPC    C12    749       -0.1     12.011
  2951         HL    367   POPC   H12A    749       0.25      1.008
  2952         HL    367   POPC   H12B    749       0.25      1.008
  2953       CTL5    367   POPC    C13    749      -0.35     12.011
  2954         HL    367   POPC   H13A    749       0.25      1.008
  2955         HL    367   POPC   H13B    749       0.25      1.008
  2956         HL    367   POPC   H13C    749       0.25      1.008
  2957       CTL5    367   POPC    C14    749      -0.35     12.011
  2958         HL    367   POPC   H14A    749       0.25      1.008
  2959         HL    367   POPC   H14B    749       0.25      1.008
  2960         HL    367   POPC   H14C    749       0.25      1.008
  2961       CTL5    367   POPC    C15    749      -0.35     12.011
  2962         HL    367   POPC   H15A    749       0.25      1.008
  2963         HL    367   POPC   H15B    749       0.25      1.008
  2964         HL    367   POPC   H15C    749       0.25      1.008
  2965       CTL2    367   POPC    C11    750      -0.08     12.011
  2966       HAL2    367   POPC   H11A    750       0.09      1.008
  2967       HAL2    367   POPC   H11B    750       0.09      1.008
  2968         PL    367   POPC      P    750        1.5     30.974
  2969        O2L    367   POPC    O13    750      -0.78    15.9994
  2970        O2L    367   POPC    O14    750      -0.78    15.9994
  2971       OSLP    367   POPC    O12    750      -0.57    15.9994
  2972       OSLP    367   POPC    O11    750      -0.57    15.9994
  2973       CTL2    367   POPC     C1    750      -0.08     12.011
  2974       HAL2    367   POPC     HA    750       0.09      1.008
  2975       HAL2    367   POPC     HB    750       0.09      1.008
  2976       CTL1    367   POPC     C2    751       0.17     12.011
  2977       HAL1    367   POPC     HS    751       0.09      1.008
  2978        OSL    367   POPC    O21    751      -0.49    15.9994
  2979         CL    367   POPC    C21    751        0.9     12.011
  2980        OBL    367   POPC    O22    751      -0.63    15.9994
  2981       CTL2    367   POPC    C22    751      -0.22     12.011
  2982       HAL2    367   POPC    H2R    751       0.09      1.008
  2983       HAL2    367   POPC    H2S    751       0.09      1.008
  2984       CTL2    367   POPC     C3    752       0.08     12.011
  2985       HAL2    367   POPC     HX    752       0.09      1.008
  2986       HAL2    367   POPC     HY    752       0.09      1.008
  2987        OSL    367   POPC    O31    752      -0.49    15.9994
  2988         CL    367   POPC    C31    752        0.9     12.011
  2989        OBL    367   POPC    O32    752      -0.63    15.9994
  2990       CTL2    367   POPC    C32    752      -0.22     12.011
  2991       HAL2    367   POPC    H2X    752       0.09      1.008
  2992       HAL2    367   POPC    H2Y    752       0.09      1.008
  2993       CTL2    367   POPC    C23    753      -0.18     12.011
  2994       HAL2    367   POPC    H3R    753       0.09      1.008
  2995       HAL2    367   POPC    H3S    753       0.09      1.008
  2996       CTL2    367   POPC    C24    754      -0.18     12.011
  2997       HAL2    367   POPC    H4R    754       0.09      1.008
  2998       HAL2    367   POPC    H4S    754       0.09      1.008
  2999       CTL2    367   POPC    C25    755      -0.18     12.011
  3000       HAL2    367   POPC    H5R    755       0.09      1.008
  3001       HAL2    367   POPC    H5S    755       0.09      1.008
  3002       CTL2    367   POPC    C26    756      -0.18     12.011
  3003       HAL2    367   POPC    H6R    756       0.09      1.008
  3004       HAL2    367   POPC    H6S    756       0.09      1.008
  3005       CTL2    367   POPC    C27    757      -0.18     12.011
  3006       HAL2    367   POPC    H7R    757       0.09      1.008
  3007       HAL2    367   POPC    H7S    757       0.09      1.008
  3008       CTL2    367   POPC    C28    758      -0.18     12.011
  3009       HAL2    367   POPC    H8R    758       0.09      1.008
  3010       HAL2    367   POPC    H8S    758       0.09      1.008
  3011       CEL1    367   POPC    C29    759      -0.15     12.011
  3012       HEL1    367   POPC    H91    759       0.15      1.008
  3013       CEL1    367   POPC   C210    760      -0.15     12.011
  3014       HEL1    367   POPC   H101    760       0.15      1.008
  3015       CTL2    367   POPC   C211    761      -0.18     12.011
  3016       HAL2    367   POPC   H11R    761       0.09      1.008
  3017       HAL2    367   POPC   H11S    761       0.09      1.008
  3018       CTL2    367   POPC   C212    762      -0.18     12.011
  3019       HAL2    367   POPC   H12R    762       0.09      1.008
  3020       HAL2    367   POPC   H12S    762       0.09      1.008
  3021       CTL2    367   POPC   C213    763      -0.18     12.011
  3022       HAL2    367   POPC   H13R    763       0.09      1.008
  3023       HAL2    367   POPC   H13S    763       0.09      1.008
  3024       CTL2    367   POPC   C214    764      -0.18     12.011
  3025       HAL2    367   POPC   H14R    764       0.09      1.008
  3026       HAL2    367   POPC   H14S    764       0.09      1.008
  3027       CTL2    367   POPC   C215    765      -0.18     12.011
  3028       HAL2    367   POPC   H15R    765       0.09      1.008
  3029       HAL2    367   POPC   H15S    765       0.09      1.008
  3030       CTL2    367   POPC   C216    766      -0.18     12.011
  3031       HAL2    367   POPC   H16R    766       0.09      1.008
  3032       HAL2    367   POPC   H16S    766       0.09      1.008
  3033       CTL2    367   POPC   C217    767      -0.18     12.011
  3034       HAL2    367   POPC   H17R    767       0.09      1.008
  3035       HAL2    367   POPC   H17S    767       0.09      1.008
  3036       CTL3    367   POPC   C218    768      -0.27     12.011
  3037       HAL3    367   POPC   H18R    768       0.09      1.008
  3038       HAL3    367   POPC   H18S    768       0.09      1.008
  3039       HAL3    367   POPC   H18T    768       0.09      1.008
  3040       CTL2    367   POPC    C33    769      -0.18     12.011
  3041       HAL2    367   POPC    H3X    769       0.09      1.008
  3042       HAL2    367   POPC    H3Y    769       0.09      1.008
  3043       CTL2    367   POPC    C34    770      -0.18     12.011
  3044       HAL2    367   POPC    H4X    770       0.09      1.008
  3045       HAL2    367   POPC    H4Y    770       0.09      1.008
  3046       CTL2    367   POPC    C35    771      -0.18     12.011
  3047       HAL2    367   POPC    H5X    771       0.09      1.008
  3048       HAL2    367   POPC    H5Y    771       0.09      1.008
  3049       CTL2    367   POPC    C36    772      -0.18     12.011
  3050       HAL2    367   POPC    H6X    772       0.09      1.008
  3051       HAL2    367   POPC    H6Y    772       0.09      1.008
  3052       CTL2    367   POPC    C37    773      -0.18     12.011
  3053       HAL2    367   POPC    H7X    773       0.09      1.008
  3054       HAL2    367   POPC    H7Y    773       0.09      1.008
  3055       CTL2    367   POPC    C38    774      -0.18     12.011
  3056       HAL2    367   POPC    H8X    774       0.09      1.008
  3057       HAL2    367   POPC    H8Y    774       0.09      1.008
  3058       CTL2    367   POPC    C39    775      -0.18     12.011
  3059       HAL2    367   POPC    H9X    775       0.09      1.008
  3060       HAL2    367   POPC    H9Y    775       0.09      1.008
  3061       CTL2    367   POPC   C310    776      -0.18     12.011
  3062       HAL2    367   POPC   H10X    776       0.09      1.008
  3063       HAL2    367   POPC   H10Y    776       0.09      1.008
  3064       CTL2    367   POPC   C311    777      -0.18     12.011
  3065       HAL2    367   POPC   H11X    777       0.09      1.008
  3066       HAL2    367   POPC   H11Y    777       0.09      1.008
  3067       CTL2    367   POPC   C312    778      -0.18     12.011
  3068       HAL2    367   POPC   H12X    778       0.09      1.008
  3069       HAL2    367   POPC   H12Y    778       0.09      1.008
  3070       CTL2    367   POPC   C313    779      -0.18     12.011
  3071       HAL2    367   POPC   H13X    779       0.09      1.008
  3072       HAL2    367   POPC   H13Y    779       0.09      1.008
  3073       CTL2    367   POPC   C314    780      -0.18     12.011
  3074       HAL2    367   POPC   H14X    780       0.09      1.008
  3075       HAL2    367   POPC   H14Y    780       0.09      1.008
  3076       CTL2    367   POPC   C315    781      -0.18     12.011
  3077       HAL2    367   POPC   H15X    781       0.09      1.008
  3078       HAL2    367   POPC   H15Y    781       0.09      1.008
  3079       CTL3    367   POPC   C316    782      -0.27     12.011
  3080       HAL3    367   POPC   H16X    782       0.09      1.008
  3081       HAL3    367   POPC   H16Y    782       0.09      1.008
  3082       HAL3    367   POPC   H16Z    782       0.09      1.008   ; qtot 0
; residue 368 POPC rtp POPC q  0.0
  3083        NTL    368   POPC      N    783       -0.6     14.007
  3084       CTL2    368   POPC    C12    783       -0.1     12.011
  3085         HL    368   POPC   H12A    783       0.25      1.008
  3086         HL    368   POPC   H12B    783       0.25      1.008
  3087       CTL5    368   POPC    C13    783      -0.35     12.011
  3088         HL    368   POPC   H13A    783       0.25      1.008
  3089         HL    368   POPC   H13B    783       0.25      1.008
  3090         HL    368   POPC   H13C    783       0.25      1.008
  3091       CTL5    368   POPC    C14    783      -0.35     12.011
  3092         HL    368   POPC   H14A    783       0.25      1.008
  3093         HL    368   POPC   H14B    783       0.25      1.008
  3094         HL    368   POPC   H14C    783       0.25      1.008
  3095       CTL5    368   POPC    C15    783      -0.35     12.011
  3096         HL    368   POPC   H15A    783       0.25      1.008
  3097         HL    368   POPC   H15B    783       0.25      1.008
  3098         HL    368   POPC   H15C    783       0.25      1.008
  3099       CTL2    368   POPC    C11    784      -0.08     12.011
  3100       HAL2    368   POPC   H11A    784       0.09      1.008
  3101       HAL2    368   POPC   H11B    784       0.09      1.008
  3102         PL    368   POPC      P    784        1.5     30.974
  3103        O2L    368   POPC    O13    784      -0.78    15.9994
  3104        O2L    368   POPC    O14    784      -0.78    15.9994
  3105       OSLP    368   POPC    O12    784      -0.57    15.9994
  3106       OSLP    368   POPC    O11    784      -0.57    15.9994
  3107       CTL2    368   POPC     C1    784      -0.08     12.011
  3108       HAL2    368   POPC     HA    784       0.09      1.008
  3109       HAL2    368   POPC     HB    784       0.09      1.008
  3110       CTL1    368   POPC     C2    785       0.17     12.011
  3111       HAL1    368   POPC     HS    785       0.09      1.008
  3112        OSL    368   POPC    O21    785      -0.49    15.9994
  3113         CL    368   POPC    C21    785        0.9     12.011
  3114        OBL    368   POPC    O22    785      -0.63    15.9994
  3115       CTL2    368   POPC    C22    785      -0.22     12.011
  3116       HAL2    368   POPC    H2R    785       0.09      1.008
  3117       HAL2    368   POPC    H2S    785       0.09      1.008
  3118       CTL2    368   POPC     C3    786       0.08     12.011
  3119       HAL2    368   POPC     HX    786       0.09      1.008
  3120       HAL2    368   POPC     HY    786       0.09      1.008
  3121        OSL    368   POPC    O31    786      -0.49    15.9994
  3122         CL    368   POPC    C31    786        0.9     12.011
  3123        OBL    368   POPC    O32    786      -0.63    15.9994
  3124       CTL2    368   POPC    C32    786      -0.22     12.011
  3125       HAL2    368   POPC    H2X    786       0.09      1.008
  3126       HAL2    368   POPC    H2Y    786       0.09      1.008
  3127       CTL2    368   POPC    C23    787      -0.18     12.011
  3128       HAL2    368   POPC    H3R    787       0.09      1.008
  3129       HAL2    368   POPC    H3S    787       0.09      1.008
  3130       CTL2    368   POPC    C24    788      -0.18     12.011
  3131       HAL2    368   POPC    H4R    788       0.09      1.008
  3132       HAL2    368   POPC    H4S    788       0.09      1.008
  3133       CTL2    368   POPC    C25    789      -0.18     12.011
  3134       HAL2    368   POPC    H5R    789       0.09      1.008
  3135       HAL2    368   POPC    H5S    789       0.09      1.008
  3136       CTL2    368   POPC    C26    790      -0.18     12.011
  3137       HAL2    368   POPC    H6R    790       0.09      1.008
  3138       HAL2    368   POPC    H6S    790       0.09      1.008
  3139       CTL2    368   POPC    C27    791      -0.18     12.011
  3140       HAL2    368   POPC    H7R    791       0.09      1.008
  3141       HAL2    368   POPC    H7S    791       0.09      1.008
  3142       CTL2    368   POPC    C28    792      -0.18     12.011
  3143       HAL2    368   POPC    H8R    792       0.09      1.008
  3144       HAL2    368   POPC    H8S    792       0.09      1.008
  3145       CEL1    368   POPC    C29    793      -0.15     12.011
  3146       HEL1    368   POPC    H91    793       0.15      1.008
  3147       CEL1    368   POPC   C210    794      -0.15     12.011
  3148       HEL1    368   POPC   H101    794       0.15      1.008
  3149       CTL2    368   POPC   C211    795      -0.18     12.011
  3150       HAL2    368   POPC   H11R    795       0.09      1.008
  3151       HAL2    368   POPC   H11S    795       0.09      1.008
  3152       CTL2    368   POPC   C212    796      -0.18     12.011
  3153       HAL2    368   POPC   H12R    796       0.09      1.008
  3154       HAL2    368   POPC   H12S    796       0.09      1.008
  3155       CTL2    368   POPC   C213    797      -0.18     12.011
  3156       HAL2    368   POPC   H13R    797       0.09      1.008
  3157       HAL2    368   POPC   H13S    797       0.09      1.008
  3158       CTL2    368   POPC   C214    798      -0.18     12.011
  3159       HAL2    368   POPC   H14R    798       0.09      1.008
  3160       HAL2    368   POPC   H14S    798       0.09      1.008
  3161       CTL2    368   POPC   C215    799      -0.18     12.011
  3162       HAL2    368   POPC   H15R    799       0.09      1.008
  3163       HAL2    368   POPC   H15S    799       0.09      1.008
  3164       CTL2    368   POPC   C216    800      -0.18     12.011
  3165       HAL2    368   POPC   H16R    800       0.09      1.008
  3166       HAL2    368   POPC   H16S    800       0.09      1.008
  3167       CTL2    368   POPC   C217    801      -0.18     12.011
  3168       HAL2    368   POPC   H17R    801       0.09      1.008
  3169       HAL2    368   POPC   H17S    801       0.09      1.008
  3170       CTL3    368   POPC   C218    802      -0.27     12.011
  3171       HAL3    368   POPC   H18R    802       0.09      1.008
  3172       HAL3    368   POPC   H18S    802       0.09      1.008
  3173       HAL3    368   POPC   H18T    802       0.09      1.008
  3174       CTL2    368   POPC    C33    803      -0.18     12.011
  3175       HAL2    368   POPC    H3X    803       0.09      1.008
  3176       HAL2    368   POPC    H3Y    803       0.09      1.008
  3177       CTL2    368   POPC    C34    804      -0.18     12.011
  3178       HAL2    368   POPC    H4X    804       0.09      1.008
  3179       HAL2    368   POPC    H4Y    804       0.09      1.008
  3180       CTL2    368   POPC    C35    805      -0.18     12.011
  3181       HAL2    368   POPC    H5X    805       0.09      1.008
  3182       HAL2    368   POPC    H5Y    805       0.09      1.008
  3183       CTL2    368   POPC    C36    806      -0.18     12.011
  3184       HAL2    368   POPC    H6X    806       0.09      1.008
  3185       HAL2    368   POPC    H6Y    806       0.09      1.008
  3186       CTL2    368   POPC    C37    807      -0.18     12.011
  3187       HAL2    368   POPC    H7X    807       0.09      1.008
  3188       HAL2    368   POPC    H7Y    807       0.09      1.008
  3189       CTL2    368   POPC    C38    808      -0.18     12.011
  3190       HAL2    368   POPC    H8X    808       0.09      1.008
  3191       HAL2    368   POPC    H8Y    808       0.09      1.008
  3192       CTL2    368   POPC    C39    809      -0.18     12.011
  3193       HAL2    368   POPC    H9X    809       0.09      1.008
  3194       HAL2    368   POPC    H9Y    809       0.09      1.008
  3195       CTL2    368   POPC   C310    810      -0.18     12.011
  3196       HAL2    368   POPC   H10X    810       0.09      1.008
  3197       HAL2    368   POPC   H10Y    810       0.09      1.008
  3198       CTL2    368   POPC   C311    811      -0.18     12.011
  3199       HAL2    368   POPC   H11X    811       0.09      1.008
  3200       HAL2    368   POPC   H11Y    811       0.09      1.008
  3201       CTL2    368   POPC   C312    812      -0.18     12.011
  3202       HAL2    368   POPC   H12X    812       0.09      1.008
  3203       HAL2    368   POPC   H12Y    812       0.09      1.008
  3204       CTL2    368   POPC   C313    813      -0.18     12.011
  3205       HAL2    368   POPC   H13X    813       0.09      1.008
  3206       HAL2    368   POPC   H13Y    813       0.09      1.008
  3207       CTL2    368   POPC   C314    814      -0.18     12.011
  3208       HAL2    368   POPC   H14X    814       0.09      1.008
  3209       HAL2    368   POPC   H14Y    814       0.09      1.008
  3210       CTL2    368   POPC   C315    815      -0.18     12.011
  3211       HAL2    368   POPC   H15X    815       0.09      1.008
  3212       HAL2    368   POPC   H15Y    815       0.09      1.008
  3213       CTL3    368   POPC   C316    816      -0.27     12.011
  3214       HAL3    368   POPC   H16X    816       0.09      1.008
  3215       HAL3    368   POPC   H16Y    816       0.09      1.008
  3216       HAL3    368   POPC   H16Z    816       0.09      1.008   ; qtot 0
; residue 369 POPC rtp POPC q  0.0
  3217        NTL    369   POPC      N    817       -0.6     14.007
  3218       CTL2    369   POPC    C12    817       -0.1     12.011
  3219         HL    369   POPC   H12A    817       0.25      1.008
  3220         HL    369   POPC   H12B    817       0.25      1.008
  3221       CTL5    369   POPC    C13    817      -0.35     12.011
  3222         HL    369   POPC   H13A    817       0.25      1.008
  3223         HL    369   POPC   H13B    817       0.25      1.008
  3224         HL    369   POPC   H13C    817       0.25      1.008
  3225       CTL5    369   POPC    C14    817      -0.35     12.011
  3226         HL    369   POPC   H14A    817       0.25      1.008
  3227         HL    369   POPC   H14B    817       0.25      1.008
  3228         HL    369   POPC   H14C    817       0.25      1.008
  3229       CTL5    369   POPC    C15    817      -0.35     12.011
  3230         HL    369   POPC   H15A    817       0.25      1.008
  3231         HL    369   POPC   H15B    817       0.25      1.008
  3232         HL    369   POPC   H15C    817       0.25      1.008
  3233       CTL2    369   POPC    C11    818      -0.08     12.011
  3234       HAL2    369   POPC   H11A    818       0.09      1.008
  3235       HAL2    369   POPC   H11B    818       0.09      1.008
  3236         PL    369   POPC      P    818        1.5     30.974
  3237        O2L    369   POPC    O13    818      -0.78    15.9994
  3238        O2L    369   POPC    O14    818      -0.78    15.9994
  3239       OSLP    369   POPC    O12    818      -0.57    15.9994
  3240       OSLP    369   POPC    O11    818      -0.57    15.9994
  3241       CTL2    369   POPC     C1    818      -0.08     12.011
  3242       HAL2    369   POPC     HA    818       0.09      1.008
  3243       HAL2    369   POPC     HB    818       0.09      1.008
  3244       CTL1    369   POPC     C2    819       0.17     12.011
  3245       HAL1    369   POPC     HS    819       0.09      1.008
  3246        OSL    369   POPC    O21    819      -0.49    15.9994
  3247         CL    369   POPC    C21    819        0.9     12.011
  3248        OBL    369   POPC    O22    819      -0.63    15.9994
  3249       CTL2    369   POPC    C22    819      -0.22     12.011
  3250       HAL2    369   POPC    H2R    819       0.09      1.008
  3251       HAL2    369   POPC    H2S    819       0.09      1.008
  3252       CTL2    369   POPC     C3    820       0.08     12.011
  3253       HAL2    369   POPC     HX    820       0.09      1.008
  3254       HAL2    369   POPC     HY    820       0.09      1.008
  3255        OSL    369   POPC    O31    820      -0.49    15.9994
  3256         CL    369   POPC    C31    820        0.9     12.011
  3257        OBL    369   POPC    O32    820      -0.63    15.9994
  3258       CTL2    369   POPC    C32    820      -0.22     12.011
  3259       HAL2    369   POPC    H2X    820       0.09      1.008
  3260       HAL2    369   POPC    H2Y    820       0.09      1.008
  3261       CTL2    369   POPC    C23    821      -0.18     12.011
  3262       HAL2    369   POPC    H3R    821       0.09      1.008
  3263       HAL2    369   POPC    H3S    821       0.09      1.008
  3264       CTL2    369   POPC    C24    822      -0.18     12.011
  3265       HAL2    369   POPC    H4R    822       0.09      1.008
  3266       HAL2    369   POPC    H4S    822       0.09      1.008
  3267       CTL2    369   POPC    C25    823      -0.18     12.011
  3268       HAL2    369   POPC    H5R    823       0.09      1.008
  3269       HAL2    369   POPC    H5S    823       0.09      1.008
  3270       CTL2    369   POPC    C26    824      -0.18     12.011
  3271       HAL2    369   POPC    H6R    824       0.09      1.008
  3272       HAL2    369   POPC    H6S    824       0.09      1.008
  3273       CTL2    369   POPC    C27    825      -0.18     12.011
  3274       HAL2    369   POPC    H7R    825       0.09      1.008
  3275       HAL2    369   POPC    H7S    825       0.09      1.008
  3276       CTL2    369   POPC    C28    826      -0.18     12.011
  3277       HAL2    369   POPC    H8R    826       0.09      1.008
  3278       HAL2    369   POPC    H8S    826       0.09      1.008
  3279       CEL1    369   POPC    C29    827      -0.15     12.011
  3280       HEL1    369   POPC    H91    827       0.15      1.008
  3281       CEL1    369   POPC   C210    828      -0.15     12.011
  3282       HEL1    369   POPC   H101    828       0.15      1.008
  3283       CTL2    369   POPC   C211    829      -0.18     12.011
  3284       HAL2    369   POPC   H11R    829       0.09      1.008
  3285       HAL2    369   POPC   H11S    829       0.09      1.008
  3286       CTL2    369   POPC   C212    830      -0.18     12.011
  3287       HAL2    369   POPC   H12R    830       0.09      1.008
  3288       HAL2    369   POPC   H12S    830       0.09      1.008
  3289       CTL2    369   POPC   C213    831      -0.18     12.011
  3290       HAL2    369   POPC   H13R    831       0.09      1.008
  3291       HAL2    369   POPC   H13S    831       0.09      1.008
  3292       CTL2    369   POPC   C214    832      -0.18     12.011
  3293       HAL2    369   POPC   H14R    832       0.09      1.008
  3294       HAL2    369   POPC   H14S    832       0.09      1.008
  3295       CTL2    369   POPC   C215    833      -0.18     12.011
  3296       HAL2    369   POPC   H15R    833       0.09      1.008
  3297       HAL2    369   POPC   H15S    833       0.09      1.008
  3298       CTL2    369   POPC   C216    834      -0.18     12.011
  3299       HAL2    369   POPC   H16R    834       0.09      1.008
  3300       HAL2    369   POPC   H16S    834       0.09      1.008
  3301       CTL2    369   POPC   C217    835      -0.18     12.011
  3302       HAL2    369   POPC   H17R    835       0.09      1.008
  3303       HAL2    369   POPC   H17S    835       0.09      1.008
  3304       CTL3    369   POPC   C218    836      -0.27     12.011
  3305       HAL3    369   POPC   H18R    836       0.09      1.008
  3306       HAL3    369   POPC   H18S    836       0.09      1.008
  3307       HAL3    369   POPC   H18T    836       0.09      1.008
  3308       CTL2    369   POPC    C33    837      -0.18     12.011
  3309       HAL2    369   POPC    H3X    837       0.09      1.008
  3310       HAL2    369   POPC    H3Y    837       0.09      1.008
  3311       CTL2    369   POPC    C34    838      -0.18     12.011
  3312       HAL2    369   POPC    H4X    838       0.09      1.008
  3313       HAL2    369   POPC    H4Y    838       0.09      1.008
  3314       CTL2    369   POPC    C35    839      -0.18     12.011
  3315       HAL2    369   POPC    H5X    839       0.09      1.008
  3316       HAL2    369   POPC    H5Y    839       0.09      1.008
  3317       CTL2    369   POPC    C36    840      -0.18     12.011
  3318       HAL2    369   POPC    H6X    840       0.09      1.008
  3319       HAL2    369   POPC    H6Y    840       0.09      1.008
  3320       CTL2    369   POPC    C37    841      -0.18     12.011
  3321       HAL2    369   POPC    H7X    841       0.09      1.008
  3322       HAL2    369   POPC    H7Y    841       0.09      1.008
  3323       CTL2    369   POPC    C38    842      -0.18     12.011
  3324       HAL2    369   POPC    H8X    842       0.09      1.008
  3325       HAL2    369   POPC    H8Y    842       0.09      1.008
  3326       CTL2    369   POPC    C39    843      -0.18     12.011
  3327       HAL2    369   POPC    H9X    843       0.09      1.008
  3328       HAL2    369   POPC    H9Y    843       0.09      1.008
  3329       CTL2    369   POPC   C310    844      -0.18     12.011
  3330       HAL2    369   POPC   H10X    844       0.09      1.008
  3331       HAL2    369   POPC   H10Y    844       0.09      1.008
  3332       CTL2    369   POPC   C311    845      -0.18     12.011
  3333       HAL2    369   POPC   H11X    845       0.09      1.008
  3334       HAL2    369   POPC   H11Y    845       0.09      1.008
  3335       CTL2    369   POPC   C312    846      -0.18     12.011
  3336       HAL2    369   POPC   H12X    846       0.09      1.008
  3337       HAL2    369   POPC   H12Y    846       0.09      1.008
  3338       CTL2    369   POPC   C313    847      -0.18     12.011
  3339       HAL2    369   POPC   H13X    847       0.09      1.008
  3340       HAL2    369   POPC   H13Y    847       0.09      1.008
  3341       CTL2    369   POPC   C314    848      -0.18     12.011
  3342       HAL2    369   POPC   H14X    848       0.09      1.008
  3343       HAL2    369   POPC   H14Y    848       0.09      1.008
  3344       CTL2    369   POPC   C315    849      -0.18     12.011
  3345       HAL2    369   POPC   H15X    849       0.09      1.008
  3346       HAL2    369   POPC   H15Y    849       0.09      1.008
  3347       CTL3    369   POPC   C316    850      -0.27     12.011
  3348       HAL3    369   POPC   H16X    850       0.09      1.008
  3349       HAL3    369   POPC   H16Y    850       0.09      1.008
  3350       HAL3    369   POPC   H16Z    850       0.09      1.008   ; qtot 0
; residue 370 POPC rtp POPC q  0.0
  3351        NTL    370   POPC      N    851       -0.6     14.007
  3352       CTL2    370   POPC    C12    851       -0.1     12.011
  3353         HL    370   POPC   H12A    851       0.25      1.008
  3354         HL    370   POPC   H12B    851       0.25      1.008
  3355       CTL5    370   POPC    C13    851      -0.35     12.011
  3356         HL    370   POPC   H13A    851       0.25      1.008
  3357         HL    370   POPC   H13B    851       0.25      1.008
  3358         HL    370   POPC   H13C    851       0.25      1.008
  3359       CTL5    370   POPC    C14    851      -0.35     12.011
  3360         HL    370   POPC   H14A    851       0.25      1.008
  3361         HL    370   POPC   H14B    851       0.25      1.008
  3362         HL    370   POPC   H14C    851       0.25      1.008
  3363       CTL5    370   POPC    C15    851      -0.35     12.011
  3364         HL    370   POPC   H15A    851       0.25      1.008
  3365         HL    370   POPC   H15B    851       0.25      1.008
  3366         HL    370   POPC   H15C    851       0.25      1.008
  3367       CTL2    370   POPC    C11    852      -0.08     12.011
  3368       HAL2    370   POPC   H11A    852       0.09      1.008
  3369       HAL2    370   POPC   H11B    852       0.09      1.008
  3370         PL    370   POPC      P    852        1.5     30.974
  3371        O2L    370   POPC    O13    852      -0.78    15.9994
  3372        O2L    370   POPC    O14    852      -0.78    15.9994
  3373       OSLP    370   POPC    O12    852      -0.57    15.9994
  3374       OSLP    370   POPC    O11    852      -0.57    15.9994
  3375       CTL2    370   POPC     C1    852      -0.08     12.011
  3376       HAL2    370   POPC     HA    852       0.09      1.008
  3377       HAL2    370   POPC     HB    852       0.09      1.008
  3378       CTL1    370   POPC     C2    853       0.17     12.011
  3379       HAL1    370   POPC     HS    853       0.09      1.008
  3380        OSL    370   POPC    O21    853      -0.49    15.9994
  3381         CL    370   POPC    C21    853        0.9     12.011
  3382        OBL    370   POPC    O22    853      -0.63    15.9994
  3383       CTL2    370   POPC    C22    853      -0.22     12.011
  3384       HAL2    370   POPC    H2R    853       0.09      1.008
  3385       HAL2    370   POPC    H2S    853       0.09      1.008
  3386       CTL2    370   POPC     C3    854       0.08     12.011
  3387       HAL2    370   POPC     HX    854       0.09      1.008
  3388       HAL2    370   POPC     HY    854       0.09      1.008
  3389        OSL    370   POPC    O31    854      -0.49    15.9994
  3390         CL    370   POPC    C31    854        0.9     12.011
  3391        OBL    370   POPC    O32    854      -0.63    15.9994
  3392       CTL2    370   POPC    C32    854      -0.22     12.011
  3393       HAL2    370   POPC    H2X    854       0.09      1.008
  3394       HAL2    370   POPC    H2Y    854       0.09      1.008
  3395       CTL2    370   POPC    C23    855      -0.18     12.011
  3396       HAL2    370   POPC    H3R    855       0.09      1.008
  3397       HAL2    370   POPC    H3S    855       0.09      1.008
  3398       CTL2    370   POPC    C24    856      -0.18     12.011
  3399       HAL2    370   POPC    H4R    856       0.09      1.008
  3400       HAL2    370   POPC    H4S    856       0.09      1.008
  3401       CTL2    370   POPC    C25    857      -0.18     12.011
  3402       HAL2    370   POPC    H5R    857       0.09      1.008
  3403       HAL2    370   POPC    H5S    857       0.09      1.008
  3404       CTL2    370   POPC    C26    858      -0.18     12.011
  3405       HAL2    370   POPC    H6R    858       0.09      1.008
  3406       HAL2    370   POPC    H6S    858       0.09      1.008
  3407       CTL2    370   POPC    C27    859      -0.18     12.011
  3408       HAL2    370   POPC    H7R    859       0.09      1.008
  3409       HAL2    370   POPC    H7S    859       0.09      1.008
  3410       CTL2    370   POPC    C28    860      -0.18     12.011
  3411       HAL2    370   POPC    H8R    860       0.09      1.008
  3412       HAL2    370   POPC    H8S    860       0.09      1.008
  3413       CEL1    370   POPC    C29    861      -0.15     12.011
  3414       HEL1    370   POPC    H91    861       0.15      1.008
  3415       CEL1    370   POPC   C210    862      -0.15     12.011
  3416       HEL1    370   POPC   H101    862       0.15      1.008
  3417       CTL2    370   POPC   C211    863      -0.18     12.011
  3418       HAL2    370   POPC   H11R    863       0.09      1.008
  3419       HAL2    370   POPC   H11S    863       0.09      1.008
  3420       CTL2    370   POPC   C212    864      -0.18     12.011
  3421       HAL2    370   POPC   H12R    864       0.09      1.008
  3422       HAL2    370   POPC   H12S    864       0.09      1.008
  3423       CTL2    370   POPC   C213    865      -0.18     12.011
  3424       HAL2    370   POPC   H13R    865       0.09      1.008
  3425       HAL2    370   POPC   H13S    865       0.09      1.008
  3426       CTL2    370   POPC   C214    866      -0.18     12.011
  3427       HAL2    370   POPC   H14R    866       0.09      1.008
  3428       HAL2    370   POPC   H14S    866       0.09      1.008
  3429       CTL2    370   POPC   C215    867      -0.18     12.011
  3430       HAL2    370   POPC   H15R    867       0.09      1.008
  3431       HAL2    370   POPC   H15S    867       0.09      1.008
  3432       CTL2    370   POPC   C216    868      -0.18     12.011
  3433       HAL2    370   POPC   H16R    868       0.09      1.008
  3434       HAL2    370   POPC   H16S    868       0.09      1.008
  3435       CTL2    370   POPC   C217    869      -0.18     12.011
  3436       HAL2    370   POPC   H17R    869       0.09      1.008
  3437       HAL2    370   POPC   H17S    869       0.09      1.008
  3438       CTL3    370   POPC   C218    870      -0.27     12.011
  3439       HAL3    370   POPC   H18R    870       0.09      1.008
  3440       HAL3    370   POPC   H18S    870       0.09      1.008
  3441       HAL3    370   POPC   H18T    870       0.09      1.008
  3442       CTL2    370   POPC    C33    871      -0.18     12.011
  3443       HAL2    370   POPC    H3X    871       0.09      1.008
  3444       HAL2    370   POPC    H3Y    871       0.09      1.008
  3445       CTL2    370   POPC    C34    872      -0.18     12.011
  3446       HAL2    370   POPC    H4X    872       0.09      1.008
  3447       HAL2    370   POPC    H4Y    872       0.09      1.008
  3448       CTL2    370   POPC    C35    873      -0.18     12.011
  3449       HAL2    370   POPC    H5X    873       0.09      1.008
  3450       HAL2    370   POPC    H5Y    873       0.09      1.008
  3451       CTL2    370   POPC    C36    874      -0.18     12.011
  3452       HAL2    370   POPC    H6X    874       0.09      1.008
  3453       HAL2    370   POPC    H6Y    874       0.09      1.008
  3454       CTL2    370   POPC    C37    875      -0.18     12.011
  3455       HAL2    370   POPC    H7X    875       0.09      1.008
  3456       HAL2    370   POPC    H7Y    875       0.09      1.008
  3457       CTL2    370   POPC    C38    876      -0.18     12.011
  3458       HAL2    370   POPC    H8X    876       0.09      1.008
  3459       HAL2    370   POPC    H8Y    876       0.09      1.008
  3460       CTL2    370   POPC    C39    877      -0.18     12.011
  3461       HAL2    370   POPC    H9X    877       0.09      1.008
  3462       HAL2    370   POPC    H9Y    877       0.09      1.008
  3463       CTL2    370   POPC   C310    878      -0.18     12.011
  3464       HAL2    370   POPC   H10X    878       0.09      1.008
  3465       HAL2    370   POPC   H10Y    878       0.09      1.008
  3466       CTL2    370   POPC   C311    879      -0.18     12.011
  3467       HAL2    370   POPC   H11X    879       0.09      1.008
  3468       HAL2    370   POPC   H11Y    879       0.09      1.008
  3469       CTL2    370   POPC   C312    880      -0.18     12.011
  3470       HAL2    370   POPC   H12X    880       0.09      1.008
  3471       HAL2    370   POPC   H12Y    880       0.09      1.008
  3472       CTL2    370   POPC   C313    881      -0.18     12.011
  3473       HAL2    370   POPC   H13X    881       0.09      1.008
  3474       HAL2    370   POPC   H13Y    881       0.09      1.008
  3475       CTL2    370   POPC   C314    882      -0.18     12.011
  3476       HAL2    370   POPC   H14X    882       0.09      1.008
  3477       HAL2    370   POPC   H14Y    882       0.09      1.008
  3478       CTL2    370   POPC   C315    883      -0.18     12.011
  3479       HAL2    370   POPC   H15X    883       0.09      1.008
  3480       HAL2    370   POPC   H15Y    883       0.09      1.008
  3481       CTL3    370   POPC   C316    884      -0.27     12.011
  3482       HAL3    370   POPC   H16X    884       0.09      1.008
  3483       HAL3    370   POPC   H16Y    884       0.09      1.008
  3484       HAL3    370   POPC   H16Z    884       0.09      1.008   ; qtot 0
; residue 371 POPC rtp POPC q  0.0
  3485        NTL    371   POPC      N    885       -0.6     14.007
  3486       CTL2    371   POPC    C12    885       -0.1     12.011
  3487         HL    371   POPC   H12A    885       0.25      1.008
  3488         HL    371   POPC   H12B    885       0.25      1.008
  3489       CTL5    371   POPC    C13    885      -0.35     12.011
  3490         HL    371   POPC   H13A    885       0.25      1.008
  3491         HL    371   POPC   H13B    885       0.25      1.008
  3492         HL    371   POPC   H13C    885       0.25      1.008
  3493       CTL5    371   POPC    C14    885      -0.35     12.011
  3494         HL    371   POPC   H14A    885       0.25      1.008
  3495         HL    371   POPC   H14B    885       0.25      1.008
  3496         HL    371   POPC   H14C    885       0.25      1.008
  3497       CTL5    371   POPC    C15    885      -0.35     12.011
  3498         HL    371   POPC   H15A    885       0.25      1.008
  3499         HL    371   POPC   H15B    885       0.25      1.008
  3500         HL    371   POPC   H15C    885       0.25      1.008
  3501       CTL2    371   POPC    C11    886      -0.08     12.011
  3502       HAL2    371   POPC   H11A    886       0.09      1.008
  3503       HAL2    371   POPC   H11B    886       0.09      1.008
  3504         PL    371   POPC      P    886        1.5     30.974
  3505        O2L    371   POPC    O13    886      -0.78    15.9994
  3506        O2L    371   POPC    O14    886      -0.78    15.9994
  3507       OSLP    371   POPC    O12    886      -0.57    15.9994
  3508       OSLP    371   POPC    O11    886      -0.57    15.9994
  3509       CTL2    371   POPC     C1    886      -0.08     12.011
  3510       HAL2    371   POPC     HA    886       0.09      1.008
  3511       HAL2    371   POPC     HB    886       0.09      1.008
  3512       CTL1    371   POPC     C2    887       0.17     12.011
  3513       HAL1    371   POPC     HS    887       0.09      1.008
  3514        OSL    371   POPC    O21    887      -0.49    15.9994
  3515         CL    371   POPC    C21    887        0.9     12.011
  3516        OBL    371   POPC    O22    887      -0.63    15.9994
  3517       CTL2    371   POPC    C22    887      -0.22     12.011
  3518       HAL2    371   POPC    H2R    887       0.09      1.008
  3519       HAL2    371   POPC    H2S    887       0.09      1.008
  3520       CTL2    371   POPC     C3    888       0.08     12.011
  3521       HAL2    371   POPC     HX    888       0.09      1.008
  3522       HAL2    371   POPC     HY    888       0.09      1.008
  3523        OSL    371   POPC    O31    888      -0.49    15.9994
  3524         CL    371   POPC    C31    888        0.9     12.011
  3525        OBL    371   POPC    O32    888      -0.63    15.9994
  3526       CTL2    371   POPC    C32    888      -0.22     12.011
  3527       HAL2    371   POPC    H2X    888       0.09      1.008
  3528       HAL2    371   POPC    H2Y    888       0.09      1.008
  3529       CTL2    371   POPC    C23    889      -0.18     12.011
  3530       HAL2    371   POPC    H3R    889       0.09      1.008
  3531       HAL2    371   POPC    H3S    889       0.09      1.008
  3532       CTL2    371   POPC    C24    890      -0.18     12.011
  3533       HAL2    371   POPC    H4R    890       0.09      1.008
  3534       HAL2    371   POPC    H4S    890       0.09      1.008
  3535       CTL2    371   POPC    C25    891      -0.18     12.011
  3536       HAL2    371   POPC    H5R    891       0.09      1.008
  3537       HAL2    371   POPC    H5S    891       0.09      1.008
  3538       CTL2    371   POPC    C26    892      -0.18     12.011
  3539       HAL2    371   POPC    H6R    892       0.09      1.008
  3540       HAL2    371   POPC    H6S    892       0.09      1.008
  3541       CTL2    371   POPC    C27    893      -0.18     12.011
  3542       HAL2    371   POPC    H7R    893       0.09      1.008
  3543       HAL2    371   POPC    H7S    893       0.09      1.008
  3544       CTL2    371   POPC    C28    894      -0.18     12.011
  3545       HAL2    371   POPC    H8R    894       0.09      1.008
  3546       HAL2    371   POPC    H8S    894       0.09      1.008
  3547       CEL1    371   POPC    C29    895      -0.15     12.011
  3548       HEL1    371   POPC    H91    895       0.15      1.008
  3549       CEL1    371   POPC   C210    896      -0.15     12.011
  3550       HEL1    371   POPC   H101    896       0.15      1.008
  3551       CTL2    371   POPC   C211    897      -0.18     12.011
  3552       HAL2    371   POPC   H11R    897       0.09      1.008
  3553       HAL2    371   POPC   H11S    897       0.09      1.008
  3554       CTL2    371   POPC   C212    898      -0.18     12.011
  3555       HAL2    371   POPC   H12R    898       0.09      1.008
  3556       HAL2    371   POPC   H12S    898       0.09      1.008
  3557       CTL2    371   POPC   C213    899      -0.18     12.011
  3558       HAL2    371   POPC   H13R    899       0.09      1.008
  3559       HAL2    371   POPC   H13S    899       0.09      1.008
  3560       CTL2    371   POPC   C214    900      -0.18     12.011
  3561       HAL2    371   POPC   H14R    900       0.09      1.008
  3562       HAL2    371   POPC   H14S    900       0.09      1.008
  3563       CTL2    371   POPC   C215    901      -0.18     12.011
  3564       HAL2    371   POPC   H15R    901       0.09      1.008
  3565       HAL2    371   POPC   H15S    901       0.09      1.008
  3566       CTL2    371   POPC   C216    902      -0.18     12.011
  3567       HAL2    371   POPC   H16R    902       0.09      1.008
  3568       HAL2    371   POPC   H16S    902       0.09      1.008
  3569       CTL2    371   POPC   C217    903      -0.18     12.011
  3570       HAL2    371   POPC   H17R    903       0.09      1.008
  3571       HAL2    371   POPC   H17S    903       0.09      1.008
  3572       CTL3    371   POPC   C218    904      -0.27     12.011
  3573       HAL3    371   POPC   H18R    904       0.09      1.008
  3574       HAL3    371   POPC   H18S    904       0.09      1.008
  3575       HAL3    371   POPC   H18T    904       0.09      1.008
  3576       CTL2    371   POPC    C33    905      -0.18     12.011
  3577       HAL2    371   POPC    H3X    905       0.09      1.008
  3578       HAL2    371   POPC    H3Y    905       0.09      1.008
  3579       CTL2    371   POPC    C34    906      -0.18     12.011
  3580       HAL2    371   POPC    H4X    906       0.09      1.008
  3581       HAL2    371   POPC    H4Y    906       0.09      1.008
  3582       CTL2    371   POPC    C35    907      -0.18     12.011
  3583       HAL2    371   POPC    H5X    907       0.09      1.008
  3584       HAL2    371   POPC    H5Y    907       0.09      1.008
  3585       CTL2    371   POPC    C36    908      -0.18     12.011
  3586       HAL2    371   POPC    H6X    908       0.09      1.008
  3587       HAL2    371   POPC    H6Y    908       0.09      1.008
  3588       CTL2    371   POPC    C37    909      -0.18     12.011
  3589       HAL2    371   POPC    H7X    909       0.09      1.008
  3590       HAL2    371   POPC    H7Y    909       0.09      1.008
  3591       CTL2    371   POPC    C38    910      -0.18     12.011
  3592       HAL2    371   POPC    H8X    910       0.09      1.008
  3593       HAL2    371   POPC    H8Y    910       0.09      1.008
  3594       CTL2    371   POPC    C39    911      -0.18     12.011
  3595       HAL2    371   POPC    H9X    911       0.09      1.008
  3596       HAL2    371   POPC    H9Y    911       0.09      1.008
  3597       CTL2    371   POPC   C310    912      -0.18     12.011
  3598       HAL2    371   POPC   H10X    912       0.09      1.008
  3599       HAL2    371   POPC   H10Y    912       0.09      1.008
  3600       CTL2    371   POPC   C311    913      -0.18     12.011
  3601       HAL2    371   POPC   H11X    913       0.09      1.008
  3602       HAL2    371   POPC   H11Y    913       0.09      1.008
  3603       CTL2    371   POPC   C312    914      -0.18     12.011
  3604       HAL2    371   POPC   H12X    914       0.09      1.008
  3605       HAL2    371   POPC   H12Y    914       0.09      1.008
  3606       CTL2    371   POPC   C313    915      -0.18     12.011
  3607       HAL2    371   POPC   H13X    915       0.09      1.008
  3608       HAL2    371   POPC   H13Y    915       0.09      1.008
  3609       CTL2    371   POPC   C314    916      -0.18     12.011
  3610       HAL2    371   POPC   H14X    916       0.09      1.008
  3611       HAL2    371   POPC   H14Y    916       0.09      1.008
  3612       CTL2    371   POPC   C315    917      -0.18     12.011
  3613       HAL2    371   POPC   H15X    917       0.09      1.008
  3614       HAL2    371   POPC   H15Y    917       0.09      1.008
  3615       CTL3    371   POPC   C316    918      -0.27     12.011
  3616       HAL3    371   POPC   H16X    918       0.09      1.008
  3617       HAL3    371   POPC   H16Y    918       0.09      1.008
  3618       HAL3    371   POPC   H16Z    918       0.09      1.008   ; qtot 0
; residue 372 POPC rtp POPC q  0.0
  3619        NTL    372   POPC      N    919       -0.6     14.007
  3620       CTL2    372   POPC    C12    919       -0.1     12.011
  3621         HL    372   POPC   H12A    919       0.25      1.008
  3622         HL    372   POPC   H12B    919       0.25      1.008
  3623       CTL5    372   POPC    C13    919      -0.35     12.011
  3624         HL    372   POPC   H13A    919       0.25      1.008
  3625         HL    372   POPC   H13B    919       0.25      1.008
  3626         HL    372   POPC   H13C    919       0.25      1.008
  3627       CTL5    372   POPC    C14    919      -0.35     12.011
  3628         HL    372   POPC   H14A    919       0.25      1.008
  3629         HL    372   POPC   H14B    919       0.25      1.008
  3630         HL    372   POPC   H14C    919       0.25      1.008
  3631       CTL5    372   POPC    C15    919      -0.35     12.011
  3632         HL    372   POPC   H15A    919       0.25      1.008
  3633         HL    372   POPC   H15B    919       0.25      1.008
  3634         HL    372   POPC   H15C    919       0.25      1.008
  3635       CTL2    372   POPC    C11    920      -0.08     12.011
  3636       HAL2    372   POPC   H11A    920       0.09      1.008
  3637       HAL2    372   POPC   H11B    920       0.09      1.008
  3638         PL    372   POPC      P    920        1.5     30.974
  3639        O2L    372   POPC    O13    920      -0.78    15.9994
  3640        O2L    372   POPC    O14    920      -0.78    15.9994
  3641       OSLP    372   POPC    O12    920      -0.57    15.9994
  3642       OSLP    372   POPC    O11    920      -0.57    15.9994
  3643       CTL2    372   POPC     C1    920      -0.08     12.011
  3644       HAL2    372   POPC     HA    920       0.09      1.008
  3645       HAL2    372   POPC     HB    920       0.09      1.008
  3646       CTL1    372   POPC     C2    921       0.17     12.011
  3647       HAL1    372   POPC     HS    921       0.09      1.008
  3648        OSL    372   POPC    O21    921      -0.49    15.9994
  3649         CL    372   POPC    C21    921        0.9     12.011
  3650        OBL    372   POPC    O22    921      -0.63    15.9994
  3651       CTL2    372   POPC    C22    921      -0.22     12.011
  3652       HAL2    372   POPC    H2R    921       0.09      1.008
  3653       HAL2    372   POPC    H2S    921       0.09      1.008
  3654       CTL2    372   POPC     C3    922       0.08     12.011
  3655       HAL2    372   POPC     HX    922       0.09      1.008
  3656       HAL2    372   POPC     HY    922       0.09      1.008
  3657        OSL    372   POPC    O31    922      -0.49    15.9994
  3658         CL    372   POPC    C31    922        0.9     12.011
  3659        OBL    372   POPC    O32    922      -0.63    15.9994
  3660       CTL2    372   POPC    C32    922      -0.22     12.011
  3661       HAL2    372   POPC    H2X    922       0.09      1.008
  3662       HAL2    372   POPC    H2Y    922       0.09      1.008
  3663       CTL2    372   POPC    C23    923      -0.18     12.011
  3664       HAL2    372   POPC    H3R    923       0.09      1.008
  3665       HAL2    372   POPC    H3S    923       0.09      1.008
  3666       CTL2    372   POPC    C24    924      -0.18     12.011
  3667       HAL2    372   POPC    H4R    924       0.09      1.008
  3668       HAL2    372   POPC    H4S    924       0.09      1.008
  3669       CTL2    372   POPC    C25    925      -0.18     12.011
  3670       HAL2    372   POPC    H5R    925       0.09      1.008
  3671       HAL2    372   POPC    H5S    925       0.09      1.008
  3672       CTL2    372   POPC    C26    926      -0.18     12.011
  3673       HAL2    372   POPC    H6R    926       0.09      1.008
  3674       HAL2    372   POPC    H6S    926       0.09      1.008
  3675       CTL2    372   POPC    C27    927      -0.18     12.011
  3676       HAL2    372   POPC    H7R    927       0.09      1.008
  3677       HAL2    372   POPC    H7S    927       0.09      1.008
  3678       CTL2    372   POPC    C28    928      -0.18     12.011
  3679       HAL2    372   POPC    H8R    928       0.09      1.008
  3680       HAL2    372   POPC    H8S    928       0.09      1.008
  3681       CEL1    372   POPC    C29    929      -0.15     12.011
  3682       HEL1    372   POPC    H91    929       0.15      1.008
  3683       CEL1    372   POPC   C210    930      -0.15     12.011
  3684       HEL1    372   POPC   H101    930       0.15      1.008
  3685       CTL2    372   POPC   C211    931      -0.18     12.011
  3686       HAL2    372   POPC   H11R    931       0.09      1.008
  3687       HAL2    372   POPC   H11S    931       0.09      1.008
  3688       CTL2    372   POPC   C212    932      -0.18     12.011
  3689       HAL2    372   POPC   H12R    932       0.09      1.008
  3690       HAL2    372   POPC   H12S    932       0.09      1.008
  3691       CTL2    372   POPC   C213    933      -0.18     12.011
  3692       HAL2    372   POPC   H13R    933       0.09      1.008
  3693       HAL2    372   POPC   H13S    933       0.09      1.008
  3694       CTL2    372   POPC   C214    934      -0.18     12.011
  3695       HAL2    372   POPC   H14R    934       0.09      1.008
  3696       HAL2    372   POPC   H14S    934       0.09      1.008
  3697       CTL2    372   POPC   C215    935      -0.18     12.011
  3698       HAL2    372   POPC   H15R    935       0.09      1.008
  3699       HAL2    372   POPC   H15S    935       0.09      1.008
  3700       CTL2    372   POPC   C216    936      -0.18     12.011
  3701       HAL2    372   POPC   H16R    936       0.09      1.008
  3702       HAL2    372   POPC   H16S    936       0.09      1.008
  3703       CTL2    372   POPC   C217    937      -0.18     12.011
  3704       HAL2    372   POPC   H17R    937       0.09      1.008
  3705       HAL2    372   POPC   H17S    937       0.09      1.008
  3706       CTL3    372   POPC   C218    938      -0.27     12.011
  3707       HAL3    372   POPC   H18R    938       0.09      1.008
  3708       HAL3    372   POPC   H18S    938       0.09      1.008
  3709       HAL3    372   POPC   H18T    938       0.09      1.008
  3710       CTL2    372   POPC    C33    939      -0.18     12.011
  3711       HAL2    372   POPC    H3X    939       0.09      1.008
  3712       HAL2    372   POPC    H3Y    939       0.09      1.008
  3713       CTL2    372   POPC    C34    940      -0.18     12.011
  3714       HAL2    372   POPC    H4X    940       0.09      1.008
  3715       HAL2    372   POPC    H4Y    940       0.09      1.008
  3716       CTL2    372   POPC    C35    941      -0.18     12.011
  3717       HAL2    372   POPC    H5X    941       0.09      1.008
  3718       HAL2    372   POPC    H5Y    941       0.09      1.008
  3719       CTL2    372   POPC    C36    942      -0.18     12.011
  3720       HAL2    372   POPC    H6X    942       0.09      1.008
  3721       HAL2    372   POPC    H6Y    942       0.09      1.008
  3722       CTL2    372   POPC    C37    943      -0.18     12.011
  3723       HAL2    372   POPC    H7X    943       0.09      1.008
  3724       HAL2    372   POPC    H7Y    943       0.09      1.008
  3725       CTL2    372   POPC    C38    944      -0.18     12.011
  3726       HAL2    372   POPC    H8X    944       0.09      1.008
  3727       HAL2    372   POPC    H8Y    944       0.09      1.008
  3728       CTL2    372   POPC    C39    945      -0.18     12.011
  3729       HAL2    372   POPC    H9X    945       0.09      1.008
  3730       HAL2    372   POPC    H9Y    945       0.09      1.008
  3731       CTL2    372   POPC   C310    946      -0.18     12.011
  3732       HAL2    372   POPC   H10X    946       0.09      1.008
  3733       HAL2    372   POPC   H10Y    946       0.09      1.008
  3734       CTL2    372   POPC   C311    947      -0.18     12.011
  3735       HAL2    372   POPC   H11X    947       0.09      1.008
  3736       HAL2    372   POPC   H11Y    947       0.09      1.008
  3737       CTL2    372   POPC   C312    948      -0.18     12.011
  3738       HAL2    372   POPC   H12X    948       0.09      1.008
  3739       HAL2    372   POPC   H12Y    948       0.09      1.008
  3740       CTL2    372   POPC   C313    949      -0.18     12.011
  3741       HAL2    372   POPC   H13X    949       0.09      1.008
  3742       HAL2    372   POPC   H13Y    949       0.09      1.008
  3743       CTL2    372   POPC   C314    950      -0.18     12.011
  3744       HAL2    372   POPC   H14X    950       0.09      1.008
  3745       HAL2    372   POPC   H14Y    950       0.09      1.008
  3746       CTL2    372   POPC   C315    951      -0.18     12.011
  3747       HAL2    372   POPC   H15X    951       0.09      1.008
  3748       HAL2    372   POPC   H15Y    951       0.09      1.008
  3749       CTL3    372   POPC   C316    952      -0.27     12.011
  3750       HAL3    372   POPC   H16X    952       0.09      1.008
  3751       HAL3    372   POPC   H16Y    952       0.09      1.008
  3752       HAL3    372   POPC   H16Z    952       0.09      1.008   ; qtot 0
; residue 373 POPC rtp POPC q  0.0
  3753        NTL    373   POPC      N    953       -0.6     14.007
  3754       CTL2    373   POPC    C12    953       -0.1     12.011
  3755         HL    373   POPC   H12A    953       0.25      1.008
  3756         HL    373   POPC   H12B    953       0.25      1.008
  3757       CTL5    373   POPC    C13    953      -0.35     12.011
  3758         HL    373   POPC   H13A    953       0.25      1.008
  3759         HL    373   POPC   H13B    953       0.25      1.008
  3760         HL    373   POPC   H13C    953       0.25      1.008
  3761       CTL5    373   POPC    C14    953      -0.35     12.011
  3762         HL    373   POPC   H14A    953       0.25      1.008
  3763         HL    373   POPC   H14B    953       0.25      1.008
  3764         HL    373   POPC   H14C    953       0.25      1.008
  3765       CTL5    373   POPC    C15    953      -0.35     12.011
  3766         HL    373   POPC   H15A    953       0.25      1.008
  3767         HL    373   POPC   H15B    953       0.25      1.008
  3768         HL    373   POPC   H15C    953       0.25      1.008
  3769       CTL2    373   POPC    C11    954      -0.08     12.011
  3770       HAL2    373   POPC   H11A    954       0.09      1.008
  3771       HAL2    373   POPC   H11B    954       0.09      1.008
  3772         PL    373   POPC      P    954        1.5     30.974
  3773        O2L    373   POPC    O13    954      -0.78    15.9994
  3774        O2L    373   POPC    O14    954      -0.78    15.9994
  3775       OSLP    373   POPC    O12    954      -0.57    15.9994
  3776       OSLP    373   POPC    O11    954      -0.57    15.9994
  3777       CTL2    373   POPC     C1    954      -0.08     12.011
  3778       HAL2    373   POPC     HA    954       0.09      1.008
  3779       HAL2    373   POPC     HB    954       0.09      1.008
  3780       CTL1    373   POPC     C2    955       0.17     12.011
  3781       HAL1    373   POPC     HS    955       0.09      1.008
  3782        OSL    373   POPC    O21    955      -0.49    15.9994
  3783         CL    373   POPC    C21    955        0.9     12.011
  3784        OBL    373   POPC    O22    955      -0.63    15.9994
  3785       CTL2    373   POPC    C22    955      -0.22     12.011
  3786       HAL2    373   POPC    H2R    955       0.09      1.008
  3787       HAL2    373   POPC    H2S    955       0.09      1.008
  3788       CTL2    373   POPC     C3    956       0.08     12.011
  3789       HAL2    373   POPC     HX    956       0.09      1.008
  3790       HAL2    373   POPC     HY    956       0.09      1.008
  3791        OSL    373   POPC    O31    956      -0.49    15.9994
  3792         CL    373   POPC    C31    956        0.9     12.011
  3793        OBL    373   POPC    O32    956      -0.63    15.9994
  3794       CTL2    373   POPC    C32    956      -0.22     12.011
  3795       HAL2    373   POPC    H2X    956       0.09      1.008
  3796       HAL2    373   POPC    H2Y    956       0.09      1.008
  3797       CTL2    373   POPC    C23    957      -0.18     12.011
  3798       HAL2    373   POPC    H3R    957       0.09      1.008
  3799       HAL2    373   POPC    H3S    957       0.09      1.008
  3800       CTL2    373   POPC    C24    958      -0.18     12.011
  3801       HAL2    373   POPC    H4R    958       0.09      1.008
  3802       HAL2    373   POPC    H4S    958       0.09      1.008
  3803       CTL2    373   POPC    C25    959      -0.18     12.011
  3804       HAL2    373   POPC    H5R    959       0.09      1.008
  3805       HAL2    373   POPC    H5S    959       0.09      1.008
  3806       CTL2    373   POPC    C26    960      -0.18     12.011
  3807       HAL2    373   POPC    H6R    960       0.09      1.008
  3808       HAL2    373   POPC    H6S    960       0.09      1.008
  3809       CTL2    373   POPC    C27    961      -0.18     12.011
  3810       HAL2    373   POPC    H7R    961       0.09      1.008
  3811       HAL2    373   POPC    H7S    961       0.09      1.008
  3812       CTL2    373   POPC    C28    962      -0.18     12.011
  3813       HAL2    373   POPC    H8R    962       0.09      1.008
  3814       HAL2    373   POPC    H8S    962       0.09      1.008
  3815       CEL1    373   POPC    C29    963      -0.15     12.011
  3816       HEL1    373   POPC    H91    963       0.15      1.008
  3817       CEL1    373   POPC   C210    964      -0.15     12.011
  3818       HEL1    373   POPC   H101    964       0.15      1.008
  3819       CTL2    373   POPC   C211    965      -0.18     12.011
  3820       HAL2    373   POPC   H11R    965       0.09      1.008
  3821       HAL2    373   POPC   H11S    965       0.09      1.008
  3822       CTL2    373   POPC   C212    966      -0.18     12.011
  3823       HAL2    373   POPC   H12R    966       0.09      1.008
  3824       HAL2    373   POPC   H12S    966       0.09      1.008
  3825       CTL2    373   POPC   C213    967      -0.18     12.011
  3826       HAL2    373   POPC   H13R    967       0.09      1.008
  3827       HAL2    373   POPC   H13S    967       0.09      1.008
  3828       CTL2    373   POPC   C214    968      -0.18     12.011
  3829       HAL2    373   POPC   H14R    968       0.09      1.008
  3830       HAL2    373   POPC   H14S    968       0.09      1.008
  3831       CTL2    373   POPC   C215    969      -0.18     12.011
  3832       HAL2    373   POPC   H15R    969       0.09      1.008
  3833       HAL2    373   POPC   H15S    969       0.09      1.008
  3834       CTL2    373   POPC   C216    970      -0.18     12.011
  3835       HAL2    373   POPC   H16R    970       0.09      1.008
  3836       HAL2    373   POPC   H16S    970       0.09      1.008
  3837       CTL2    373   POPC   C217    971      -0.18     12.011
  3838       HAL2    373   POPC   H17R    971       0.09      1.008
  3839       HAL2    373   POPC   H17S    971       0.09      1.008
  3840       CTL3    373   POPC   C218    972      -0.27     12.011
  3841       HAL3    373   POPC   H18R    972       0.09      1.008
  3842       HAL3    373   POPC   H18S    972       0.09      1.008
  3843       HAL3    373   POPC   H18T    972       0.09      1.008
  3844       CTL2    373   POPC    C33    973      -0.18     12.011
  3845       HAL2    373   POPC    H3X    973       0.09      1.008
  3846       HAL2    373   POPC    H3Y    973       0.09      1.008
  3847       CTL2    373   POPC    C34    974      -0.18     12.011
  3848       HAL2    373   POPC    H4X    974       0.09      1.008
  3849       HAL2    373   POPC    H4Y    974       0.09      1.008
  3850       CTL2    373   POPC    C35    975      -0.18     12.011
  3851       HAL2    373   POPC    H5X    975       0.09      1.008
  3852       HAL2    373   POPC    H5Y    975       0.09      1.008
  3853       CTL2    373   POPC    C36    976      -0.18     12.011
  3854       HAL2    373   POPC    H6X    976       0.09      1.008
  3855       HAL2    373   POPC    H6Y    976       0.09      1.008
  3856       CTL2    373   POPC    C37    977      -0.18     12.011
  3857       HAL2    373   POPC    H7X    977       0.09      1.008
  3858       HAL2    373   POPC    H7Y    977       0.09      1.008
  3859       CTL2    373   POPC    C38    978      -0.18     12.011
  3860       HAL2    373   POPC    H8X    978       0.09      1.008
  3861       HAL2    373   POPC    H8Y    978       0.09      1.008
  3862       CTL2    373   POPC    C39    979      -0.18     12.011
  3863       HAL2    373   POPC    H9X    979       0.09      1.008
  3864       HAL2    373   POPC    H9Y    979       0.09      1.008
  3865       CTL2    373   POPC   C310    980      -0.18     12.011
  3866       HAL2    373   POPC   H10X    980       0.09      1.008
  3867       HAL2    373   POPC   H10Y    980       0.09      1.008
  3868       CTL2    373   POPC   C311    981      -0.18     12.011
  3869       HAL2    373   POPC   H11X    981       0.09      1.008
  3870       HAL2    373   POPC   H11Y    981       0.09      1.008
  3871       CTL2    373   POPC   C312    982      -0.18     12.011
  3872       HAL2    373   POPC   H12X    982       0.09      1.008
  3873       HAL2    373   POPC   H12Y    982       0.09      1.008
  3874       CTL2    373   POPC   C313    983      -0.18     12.011
  3875       HAL2    373   POPC   H13X    983       0.09      1.008
  3876       HAL2    373   POPC   H13Y    983       0.09      1.008
  3877       CTL2    373   POPC   C314    984      -0.18     12.011
  3878       HAL2    373   POPC   H14X    984       0.09      1.008
  3879       HAL2    373   POPC   H14Y    984       0.09      1.008
  3880       CTL2    373   POPC   C315    985      -0.18     12.011
  3881       HAL2    373   POPC   H15X    985       0.09      1.008
  3882       HAL2    373   POPC   H15Y    985       0.09      1.008
  3883       CTL3    373   POPC   C316    986      -0.27     12.011
  3884       HAL3    373   POPC   H16X    986       0.09      1.008
  3885       HAL3    373   POPC   H16Y    986       0.09      1.008
  3886       HAL3    373   POPC   H16Z    986       0.09      1.008   ; qtot 0
; residue 374 POPC rtp POPC q  0.0
  3887        NTL    374   POPC      N    987       -0.6     14.007
  3888       CTL2    374   POPC    C12    987       -0.1     12.011
  3889         HL    374   POPC   H12A    987       0.25      1.008
  3890         HL    374   POPC   H12B    987       0.25      1.008
  3891       CTL5    374   POPC    C13    987      -0.35     12.011
  3892         HL    374   POPC   H13A    987       0.25      1.008
  3893         HL    374   POPC   H13B    987       0.25      1.008
  3894         HL    374   POPC   H13C    987       0.25      1.008
  3895       CTL5    374   POPC    C14    987      -0.35     12.011
  3896         HL    374   POPC   H14A    987       0.25      1.008
  3897         HL    374   POPC   H14B    987       0.25      1.008
  3898         HL    374   POPC   H14C    987       0.25      1.008
  3899       CTL5    374   POPC    C15    987      -0.35     12.011
  3900         HL    374   POPC   H15A    987       0.25      1.008
  3901         HL    374   POPC   H15B    987       0.25      1.008
  3902         HL    374   POPC   H15C    987       0.25      1.008
  3903       CTL2    374   POPC    C11    988      -0.08     12.011
  3904       HAL2    374   POPC   H11A    988       0.09      1.008
  3905       HAL2    374   POPC   H11B    988       0.09      1.008
  3906         PL    374   POPC      P    988        1.5     30.974
  3907        O2L    374   POPC    O13    988      -0.78    15.9994
  3908        O2L    374   POPC    O14    988      -0.78    15.9994
  3909       OSLP    374   POPC    O12    988      -0.57    15.9994
  3910       OSLP    374   POPC    O11    988      -0.57    15.9994
  3911       CTL2    374   POPC     C1    988      -0.08     12.011
  3912       HAL2    374   POPC     HA    988       0.09      1.008
  3913       HAL2    374   POPC     HB    988       0.09      1.008
  3914       CTL1    374   POPC     C2    989       0.17     12.011
  3915       HAL1    374   POPC     HS    989       0.09      1.008
  3916        OSL    374   POPC    O21    989      -0.49    15.9994
  3917         CL    374   POPC    C21    989        0.9     12.011
  3918        OBL    374   POPC    O22    989      -0.63    15.9994
  3919       CTL2    374   POPC    C22    989      -0.22     12.011
  3920       HAL2    374   POPC    H2R    989       0.09      1.008
  3921       HAL2    374   POPC    H2S    989       0.09      1.008
  3922       CTL2    374   POPC     C3    990       0.08     12.011
  3923       HAL2    374   POPC     HX    990       0.09      1.008
  3924       HAL2    374   POPC     HY    990       0.09      1.008
  3925        OSL    374   POPC    O31    990      -0.49    15.9994
  3926         CL    374   POPC    C31    990        0.9     12.011
  3927        OBL    374   POPC    O32    990      -0.63    15.9994
  3928       CTL2    374   POPC    C32    990      -0.22     12.011
  3929       HAL2    374   POPC    H2X    990       0.09      1.008
  3930       HAL2    374   POPC    H2Y    990       0.09      1.008
  3931       CTL2    374   POPC    C23    991      -0.18     12.011
  3932       HAL2    374   POPC    H3R    991       0.09      1.008
  3933       HAL2    374   POPC    H3S    991       0.09      1.008
  3934       CTL2    374   POPC    C24    992      -0.18     12.011
  3935       HAL2    374   POPC    H4R    992       0.09      1.008
  3936       HAL2    374   POPC    H4S    992       0.09      1.008
  3937       CTL2    374   POPC    C25    993      -0.18     12.011
  3938       HAL2    374   POPC    H5R    993       0.09      1.008
  3939       HAL2    374   POPC    H5S    993       0.09      1.008
  3940       CTL2    374   POPC    C26    994      -0.18     12.011
  3941       HAL2    374   POPC    H6R    994       0.09      1.008
  3942       HAL2    374   POPC    H6S    994       0.09      1.008
  3943       CTL2    374   POPC    C27    995      -0.18     12.011
  3944       HAL2    374   POPC    H7R    995       0.09      1.008
  3945       HAL2    374   POPC    H7S    995       0.09      1.008
  3946       CTL2    374   POPC    C28    996      -0.18     12.011
  3947       HAL2    374   POPC    H8R    996       0.09      1.008
  3948       HAL2    374   POPC    H8S    996       0.09      1.008
  3949       CEL1    374   POPC    C29    997      -0.15     12.011
  3950       HEL1    374   POPC    H91    997       0.15      1.008
  3951       CEL1    374   POPC   C210    998      -0.15     12.011
  3952       HEL1    374   POPC   H101    998       0.15      1.008
  3953       CTL2    374   POPC   C211    999      -0.18     12.011
  3954       HAL2    374   POPC   H11R    999       0.09      1.008
  3955       HAL2    374   POPC   H11S    999       0.09      1.008
  3956       CTL2    374   POPC   C212   1000      -0.18     12.011
  3957       HAL2    374   POPC   H12R   1000       0.09      1.008
  3958       HAL2    374   POPC   H12S   1000       0.09      1.008
  3959       CTL2    374   POPC   C213   1001      -0.18     12.011
  3960       HAL2    374   POPC   H13R   1001       0.09      1.008
  3961       HAL2    374   POPC   H13S   1001       0.09      1.008
  3962       CTL2    374   POPC   C214   1002      -0.18     12.011
  3963       HAL2    374   POPC   H14R   1002       0.09      1.008
  3964       HAL2    374   POPC   H14S   1002       0.09      1.008
  3965       CTL2    374   POPC   C215   1003      -0.18     12.011
  3966       HAL2    374   POPC   H15R   1003       0.09      1.008
  3967       HAL2    374   POPC   H15S   1003       0.09      1.008
  3968       CTL2    374   POPC   C216   1004      -0.18     12.011
  3969       HAL2    374   POPC   H16R   1004       0.09      1.008
  3970       HAL2    374   POPC   H16S   1004       0.09      1.008
  3971       CTL2    374   POPC   C217   1005      -0.18     12.011
  3972       HAL2    374   POPC   H17R   1005       0.09      1.008
  3973       HAL2    374   POPC   H17S   1005       0.09      1.008
  3974       CTL3    374   POPC   C218   1006      -0.27     12.011
  3975       HAL3    374   POPC   H18R   1006       0.09      1.008
  3976       HAL3    374   POPC   H18S   1006       0.09      1.008
  3977       HAL3    374   POPC   H18T   1006       0.09      1.008
  3978       CTL2    374   POPC    C33   1007      -0.18     12.011
  3979       HAL2    374   POPC    H3X   1007       0.09      1.008
  3980       HAL2    374   POPC    H3Y   1007       0.09      1.008
  3981       CTL2    374   POPC    C34   1008      -0.18     12.011
  3982       HAL2    374   POPC    H4X   1008       0.09      1.008
  3983       HAL2    374   POPC    H4Y   1008       0.09      1.008
  3984       CTL2    374   POPC    C35   1009      -0.18     12.011
  3985       HAL2    374   POPC    H5X   1009       0.09      1.008
  3986       HAL2    374   POPC    H5Y   1009       0.09      1.008
  3987       CTL2    374   POPC    C36   1010      -0.18     12.011
  3988       HAL2    374   POPC    H6X   1010       0.09      1.008
  3989       HAL2    374   POPC    H6Y   1010       0.09      1.008
  3990       CTL2    374   POPC    C37   1011      -0.18     12.011
  3991       HAL2    374   POPC    H7X   1011       0.09      1.008
  3992       HAL2    374   POPC    H7Y   1011       0.09      1.008
  3993       CTL2    374   POPC    C38   1012      -0.18     12.011
  3994       HAL2    374   POPC    H8X   1012       0.09      1.008
  3995       HAL2    374   POPC    H8Y   1012       0.09      1.008
  3996       CTL2    374   POPC    C39   1013      -0.18     12.011
  3997       HAL2    374   POPC    H9X   1013       0.09      1.008
  3998       HAL2    374   POPC    H9Y   1013       0.09      1.008
  3999       CTL2    374   POPC   C310   1014      -0.18     12.011
  4000       HAL2    374   POPC   H10X   1014       0.09      1.008
  4001       HAL2    374   POPC   H10Y   1014       0.09      1.008
  4002       CTL2    374   POPC   C311   1015      -0.18     12.011
  4003       HAL2    374   POPC   H11X   1015       0.09      1.008
  4004       HAL2    374   POPC   H11Y   1015       0.09      1.008
  4005       CTL2    374   POPC   C312   1016      -0.18     12.011
  4006       HAL2    374   POPC   H12X   1016       0.09      1.008
  4007       HAL2    374   POPC   H12Y   1016       0.09      1.008
  4008       CTL2    374   POPC   C313   1017      -0.18     12.011
  4009       HAL2    374   POPC   H13X   1017       0.09      1.008
  4010       HAL2    374   POPC   H13Y   1017       0.09      1.008
  4011       CTL2    374   POPC   C314   1018      -0.18     12.011
  4012       HAL2    374   POPC   H14X   1018       0.09      1.008
  4013       HAL2    374   POPC   H14Y   1018       0.09      1.008
  4014       CTL2    374   POPC   C315   1019      -0.18     12.011
  4015       HAL2    374   POPC   H15X   1019       0.09      1.008
  4016       HAL2    374   POPC   H15Y   1019       0.09      1.008
  4017       CTL3    374   POPC   C316   1020      -0.27     12.011
  4018       HAL3    374   POPC   H16X   1020       0.09      1.008
  4019       HAL3    374   POPC   H16Y   1020       0.09      1.008
  4020       HAL3    374   POPC   H16Z   1020       0.09      1.008   ; qtot 0
; residue 375 POPC rtp POPC q  0.0
  4021        NTL    375   POPC      N   1021       -0.6     14.007
  4022       CTL2    375   POPC    C12   1021       -0.1     12.011
  4023         HL    375   POPC   H12A   1021       0.25      1.008
  4024         HL    375   POPC   H12B   1021       0.25      1.008
  4025       CTL5    375   POPC    C13   1021      -0.35     12.011
  4026         HL    375   POPC   H13A   1021       0.25      1.008
  4027         HL    375   POPC   H13B   1021       0.25      1.008
  4028         HL    375   POPC   H13C   1021       0.25      1.008
  4029       CTL5    375   POPC    C14   1021      -0.35     12.011
  4030         HL    375   POPC   H14A   1021       0.25      1.008
  4031         HL    375   POPC   H14B   1021       0.25      1.008
  4032         HL    375   POPC   H14C   1021       0.25      1.008
  4033       CTL5    375   POPC    C15   1021      -0.35     12.011
  4034         HL    375   POPC   H15A   1021       0.25      1.008
  4035         HL    375   POPC   H15B   1021       0.25      1.008
  4036         HL    375   POPC   H15C   1021       0.25      1.008
  4037       CTL2    375   POPC    C11   1022      -0.08     12.011
  4038       HAL2    375   POPC   H11A   1022       0.09      1.008
  4039       HAL2    375   POPC   H11B   1022       0.09      1.008
  4040         PL    375   POPC      P   1022        1.5     30.974
  4041        O2L    375   POPC    O13   1022      -0.78    15.9994
  4042        O2L    375   POPC    O14   1022      -0.78    15.9994
  4043       OSLP    375   POPC    O12   1022      -0.57    15.9994
  4044       OSLP    375   POPC    O11   1022      -0.57    15.9994
  4045       CTL2    375   POPC     C1   1022      -0.08     12.011
  4046       HAL2    375   POPC     HA   1022       0.09      1.008
  4047       HAL2    375   POPC     HB   1022       0.09      1.008
  4048       CTL1    375   POPC     C2   1023       0.17     12.011
  4049       HAL1    375   POPC     HS   1023       0.09      1.008
  4050        OSL    375   POPC    O21   1023      -0.49    15.9994
  4051         CL    375   POPC    C21   1023        0.9     12.011
  4052        OBL    375   POPC    O22   1023      -0.63    15.9994
  4053       CTL2    375   POPC    C22   1023      -0.22     12.011
  4054       HAL2    375   POPC    H2R   1023       0.09      1.008
  4055       HAL2    375   POPC    H2S   1023       0.09      1.008
  4056       CTL2    375   POPC     C3   1024       0.08     12.011
  4057       HAL2    375   POPC     HX   1024       0.09      1.008
  4058       HAL2    375   POPC     HY   1024       0.09      1.008
  4059        OSL    375   POPC    O31   1024      -0.49    15.9994
  4060         CL    375   POPC    C31   1024        0.9     12.011
  4061        OBL    375   POPC    O32   1024      -0.63    15.9994
  4062       CTL2    375   POPC    C32   1024      -0.22     12.011
  4063       HAL2    375   POPC    H2X   1024       0.09      1.008
  4064       HAL2    375   POPC    H2Y   1024       0.09      1.008
  4065       CTL2    375   POPC    C23   1025      -0.18     12.011
  4066       HAL2    375   POPC    H3R   1025       0.09      1.008
  4067       HAL2    375   POPC    H3S   1025       0.09      1.008
  4068       CTL2    375   POPC    C24   1026      -0.18     12.011
  4069       HAL2    375   POPC    H4R   1026       0.09      1.008
  4070       HAL2    375   POPC    H4S   1026       0.09      1.008
  4071       CTL2    375   POPC    C25   1027      -0.18     12.011
  4072       HAL2    375   POPC    H5R   1027       0.09      1.008
  4073       HAL2    375   POPC    H5S   1027       0.09      1.008
  4074       CTL2    375   POPC    C26   1028      -0.18     12.011
  4075       HAL2    375   POPC    H6R   1028       0.09      1.008
  4076       HAL2    375   POPC    H6S   1028       0.09      1.008
  4077       CTL2    375   POPC    C27   1029      -0.18     12.011
  4078       HAL2    375   POPC    H7R   1029       0.09      1.008
  4079       HAL2    375   POPC    H7S   1029       0.09      1.008
  4080       CTL2    375   POPC    C28   1030      -0.18     12.011
  4081       HAL2    375   POPC    H8R   1030       0.09      1.008
  4082       HAL2    375   POPC    H8S   1030       0.09      1.008
  4083       CEL1    375   POPC    C29   1031      -0.15     12.011
  4084       HEL1    375   POPC    H91   1031       0.15      1.008
  4085       CEL1    375   POPC   C210   1032      -0.15     12.011
  4086       HEL1    375   POPC   H101   1032       0.15      1.008
  4087       CTL2    375   POPC   C211   1033      -0.18     12.011
  4088       HAL2    375   POPC   H11R   1033       0.09      1.008
  4089       HAL2    375   POPC   H11S   1033       0.09      1.008
  4090       CTL2    375   POPC   C212   1034      -0.18     12.011
  4091       HAL2    375   POPC   H12R   1034       0.09      1.008
  4092       HAL2    375   POPC   H12S   1034       0.09      1.008
  4093       CTL2    375   POPC   C213   1035      -0.18     12.011
  4094       HAL2    375   POPC   H13R   1035       0.09      1.008
  4095       HAL2    375   POPC   H13S   1035       0.09      1.008
  4096       CTL2    375   POPC   C214   1036      -0.18     12.011
  4097       HAL2    375   POPC   H14R   1036       0.09      1.008
  4098       HAL2    375   POPC   H14S   1036       0.09      1.008
  4099       CTL2    375   POPC   C215   1037      -0.18     12.011
  4100       HAL2    375   POPC   H15R   1037       0.09      1.008
  4101       HAL2    375   POPC   H15S   1037       0.09      1.008
  4102       CTL2    375   POPC   C216   1038      -0.18     12.011
  4103       HAL2    375   POPC   H16R   1038       0.09      1.008
  4104       HAL2    375   POPC   H16S   1038       0.09      1.008
  4105       CTL2    375   POPC   C217   1039      -0.18     12.011
  4106       HAL2    375   POPC   H17R   1039       0.09      1.008
  4107       HAL2    375   POPC   H17S   1039       0.09      1.008
  4108       CTL3    375   POPC   C218   1040      -0.27     12.011
  4109       HAL3    375   POPC   H18R   1040       0.09      1.008
  4110       HAL3    375   POPC   H18S   1040       0.09      1.008
  4111       HAL3    375   POPC   H18T   1040       0.09      1.008
  4112       CTL2    375   POPC    C33   1041      -0.18     12.011
  4113       HAL2    375   POPC    H3X   1041       0.09      1.008
  4114       HAL2    375   POPC    H3Y   1041       0.09      1.008
  4115       CTL2    375   POPC    C34   1042      -0.18     12.011
  4116       HAL2    375   POPC    H4X   1042       0.09      1.008
  4117       HAL2    375   POPC    H4Y   1042       0.09      1.008
  4118       CTL2    375   POPC    C35   1043      -0.18     12.011
  4119       HAL2    375   POPC    H5X   1043       0.09      1.008
  4120       HAL2    375   POPC    H5Y   1043       0.09      1.008
  4121       CTL2    375   POPC    C36   1044      -0.18     12.011
  4122       HAL2    375   POPC    H6X   1044       0.09      1.008
  4123       HAL2    375   POPC    H6Y   1044       0.09      1.008
  4124       CTL2    375   POPC    C37   1045      -0.18     12.011
  4125       HAL2    375   POPC    H7X   1045       0.09      1.008
  4126       HAL2    375   POPC    H7Y   1045       0.09      1.008
  4127       CTL2    375   POPC    C38   1046      -0.18     12.011
  4128       HAL2    375   POPC    H8X   1046       0.09      1.008
  4129       HAL2    375   POPC    H8Y   1046       0.09      1.008
  4130       CTL2    375   POPC    C39   1047      -0.18     12.011
  4131       HAL2    375   POPC    H9X   1047       0.09      1.008
  4132       HAL2    375   POPC    H9Y   1047       0.09      1.008
  4133       CTL2    375   POPC   C310   1048      -0.18     12.011
  4134       HAL2    375   POPC   H10X   1048       0.09      1.008
  4135       HAL2    375   POPC   H10Y   1048       0.09      1.008
  4136       CTL2    375   POPC   C311   1049      -0.18     12.011
  4137       HAL2    375   POPC   H11X   1049       0.09      1.008
  4138       HAL2    375   POPC   H11Y   1049       0.09      1.008
  4139       CTL2    375   POPC   C312   1050      -0.18     12.011
  4140       HAL2    375   POPC   H12X   1050       0.09      1.008
  4141       HAL2    375   POPC   H12Y   1050       0.09      1.008
  4142       CTL2    375   POPC   C313   1051      -0.18     12.011
  4143       HAL2    375   POPC   H13X   1051       0.09      1.008
  4144       HAL2    375   POPC   H13Y   1051       0.09      1.008
  4145       CTL2    375   POPC   C314   1052      -0.18     12.011
  4146       HAL2    375   POPC   H14X   1052       0.09      1.008
  4147       HAL2    375   POPC   H14Y   1052       0.09      1.008
  4148       CTL2    375   POPC   C315   1053      -0.18     12.011
  4149       HAL2    375   POPC   H15X   1053       0.09      1.008
  4150       HAL2    375   POPC   H15Y   1053       0.09      1.008
  4151       CTL3    375   POPC   C316   1054      -0.27     12.011
  4152       HAL3    375   POPC   H16X   1054       0.09      1.008
  4153       HAL3    375   POPC   H16Y   1054       0.09      1.008
  4154       HAL3    375   POPC   H16Z   1054       0.09      1.008   ; qtot 0
; residue 376 POPC rtp POPC q  0.0
  4155        NTL    376   POPC      N   1055       -0.6     14.007
  4156       CTL2    376   POPC    C12   1055       -0.1     12.011
  4157         HL    376   POPC   H12A   1055       0.25      1.008
  4158         HL    376   POPC   H12B   1055       0.25      1.008
  4159       CTL5    376   POPC    C13   1055      -0.35     12.011
  4160         HL    376   POPC   H13A   1055       0.25      1.008
  4161         HL    376   POPC   H13B   1055       0.25      1.008
  4162         HL    376   POPC   H13C   1055       0.25      1.008
  4163       CTL5    376   POPC    C14   1055      -0.35     12.011
  4164         HL    376   POPC   H14A   1055       0.25      1.008
  4165         HL    376   POPC   H14B   1055       0.25      1.008
  4166         HL    376   POPC   H14C   1055       0.25      1.008
  4167       CTL5    376   POPC    C15   1055      -0.35     12.011
  4168         HL    376   POPC   H15A   1055       0.25      1.008
  4169         HL    376   POPC   H15B   1055       0.25      1.008
  4170         HL    376   POPC   H15C   1055       0.25      1.008
  4171       CTL2    376   POPC    C11   1056      -0.08     12.011
  4172       HAL2    376   POPC   H11A   1056       0.09      1.008
  4173       HAL2    376   POPC   H11B   1056       0.09      1.008
  4174         PL    376   POPC      P   1056        1.5     30.974
  4175        O2L    376   POPC    O13   1056      -0.78    15.9994
  4176        O2L    376   POPC    O14   1056      -0.78    15.9994
  4177       OSLP    376   POPC    O12   1056      -0.57    15.9994
  4178       OSLP    376   POPC    O11   1056      -0.57    15.9994
  4179       CTL2    376   POPC     C1   1056      -0.08     12.011
  4180       HAL2    376   POPC     HA   1056       0.09      1.008
  4181       HAL2    376   POPC     HB   1056       0.09      1.008
  4182       CTL1    376   POPC     C2   1057       0.17     12.011
  4183       HAL1    376   POPC     HS   1057       0.09      1.008
  4184        OSL    376   POPC    O21   1057      -0.49    15.9994
  4185         CL    376   POPC    C21   1057        0.9     12.011
  4186        OBL    376   POPC    O22   1057      -0.63    15.9994
  4187       CTL2    376   POPC    C22   1057      -0.22     12.011
  4188       HAL2    376   POPC    H2R   1057       0.09      1.008
  4189       HAL2    376   POPC    H2S   1057       0.09      1.008
  4190       CTL2    376   POPC     C3   1058       0.08     12.011
  4191       HAL2    376   POPC     HX   1058       0.09      1.008
  4192       HAL2    376   POPC     HY   1058       0.09      1.008
  4193        OSL    376   POPC    O31   1058      -0.49    15.9994
  4194         CL    376   POPC    C31   1058        0.9     12.011
  4195        OBL    376   POPC    O32   1058      -0.63    15.9994
  4196       CTL2    376   POPC    C32   1058      -0.22     12.011
  4197       HAL2    376   POPC    H2X   1058       0.09      1.008
  4198       HAL2    376   POPC    H2Y   1058       0.09      1.008
  4199       CTL2    376   POPC    C23   1059      -0.18     12.011
  4200       HAL2    376   POPC    H3R   1059       0.09      1.008
  4201       HAL2    376   POPC    H3S   1059       0.09      1.008
  4202       CTL2    376   POPC    C24   1060      -0.18     12.011
  4203       HAL2    376   POPC    H4R   1060       0.09      1.008
  4204       HAL2    376   POPC    H4S   1060       0.09      1.008
  4205       CTL2    376   POPC    C25   1061      -0.18     12.011
  4206       HAL2    376   POPC    H5R   1061       0.09      1.008
  4207       HAL2    376   POPC    H5S   1061       0.09      1.008
  4208       CTL2    376   POPC    C26   1062      -0.18     12.011
  4209       HAL2    376   POPC    H6R   1062       0.09      1.008
  4210       HAL2    376   POPC    H6S   1062       0.09      1.008
  4211       CTL2    376   POPC    C27   1063      -0.18     12.011
  4212       HAL2    376   POPC    H7R   1063       0.09      1.008
  4213       HAL2    376   POPC    H7S   1063       0.09      1.008
  4214       CTL2    376   POPC    C28   1064      -0.18     12.011
  4215       HAL2    376   POPC    H8R   1064       0.09      1.008
  4216       HAL2    376   POPC    H8S   1064       0.09      1.008
  4217       CEL1    376   POPC    C29   1065      -0.15     12.011
  4218       HEL1    376   POPC    H91   1065       0.15      1.008
  4219       CEL1    376   POPC   C210   1066      -0.15     12.011
  4220       HEL1    376   POPC   H101   1066       0.15      1.008
  4221       CTL2    376   POPC   C211   1067      -0.18     12.011
  4222       HAL2    376   POPC   H11R   1067       0.09      1.008
  4223       HAL2    376   POPC   H11S   1067       0.09      1.008
  4224       CTL2    376   POPC   C212   1068      -0.18     12.011
  4225       HAL2    376   POPC   H12R   1068       0.09      1.008
  4226       HAL2    376   POPC   H12S   1068       0.09      1.008
  4227       CTL2    376   POPC   C213   1069      -0.18     12.011
  4228       HAL2    376   POPC   H13R   1069       0.09      1.008
  4229       HAL2    376   POPC   H13S   1069       0.09      1.008
  4230       CTL2    376   POPC   C214   1070      -0.18     12.011
  4231       HAL2    376   POPC   H14R   1070       0.09      1.008
  4232       HAL2    376   POPC   H14S   1070       0.09      1.008
  4233       CTL2    376   POPC   C215   1071      -0.18     12.011
  4234       HAL2    376   POPC   H15R   1071       0.09      1.008
  4235       HAL2    376   POPC   H15S   1071       0.09      1.008
  4236       CTL2    376   POPC   C216   1072      -0.18     12.011
  4237       HAL2    376   POPC   H16R   1072       0.09      1.008
  4238       HAL2    376   POPC   H16S   1072       0.09      1.008
  4239       CTL2    376   POPC   C217   1073      -0.18     12.011
  4240       HAL2    376   POPC   H17R   1073       0.09      1.008
  4241       HAL2    376   POPC   H17S   1073       0.09      1.008
  4242       CTL3    376   POPC   C218   1074      -0.27     12.011
  4243       HAL3    376   POPC   H18R   1074       0.09      1.008
  4244       HAL3    376   POPC   H18S   1074       0.09      1.008
  4245       HAL3    376   POPC   H18T   1074       0.09      1.008
  4246       CTL2    376   POPC    C33   1075      -0.18     12.011
  4247       HAL2    376   POPC    H3X   1075       0.09      1.008
  4248       HAL2    376   POPC    H3Y   1075       0.09      1.008
  4249       CTL2    376   POPC    C34   1076      -0.18     12.011
  4250       HAL2    376   POPC    H4X   1076       0.09      1.008
  4251       HAL2    376   POPC    H4Y   1076       0.09      1.008
  4252       CTL2    376   POPC    C35   1077      -0.18     12.011
  4253       HAL2    376   POPC    H5X   1077       0.09      1.008
  4254       HAL2    376   POPC    H5Y   1077       0.09      1.008
  4255       CTL2    376   POPC    C36   1078      -0.18     12.011
  4256       HAL2    376   POPC    H6X   1078       0.09      1.008
  4257       HAL2    376   POPC    H6Y   1078       0.09      1.008
  4258       CTL2    376   POPC    C37   1079      -0.18     12.011
  4259       HAL2    376   POPC    H7X   1079       0.09      1.008
  4260       HAL2    376   POPC    H7Y   1079       0.09      1.008
  4261       CTL2    376   POPC    C38   1080      -0.18     12.011
  4262       HAL2    376   POPC    H8X   1080       0.09      1.008
  4263       HAL2    376   POPC    H8Y   1080       0.09      1.008
  4264       CTL2    376   POPC    C39   1081      -0.18     12.011
  4265       HAL2    376   POPC    H9X   1081       0.09      1.008
  4266       HAL2    376   POPC    H9Y   1081       0.09      1.008
  4267       CTL2    376   POPC   C310   1082      -0.18     12.011
  4268       HAL2    376   POPC   H10X   1082       0.09      1.008
  4269       HAL2    376   POPC   H10Y   1082       0.09      1.008
  4270       CTL2    376   POPC   C311   1083      -0.18     12.011
  4271       HAL2    376   POPC   H11X   1083       0.09      1.008
  4272       HAL2    376   POPC   H11Y   1083       0.09      1.008
  4273       CTL2    376   POPC   C312   1084      -0.18     12.011
  4274       HAL2    376   POPC   H12X   1084       0.09      1.008
  4275       HAL2    376   POPC   H12Y   1084       0.09      1.008
  4276       CTL2    376   POPC   C313   1085      -0.18     12.011
  4277       HAL2    376   POPC   H13X   1085       0.09      1.008
  4278       HAL2    376   POPC   H13Y   1085       0.09      1.008
  4279       CTL2    376   POPC   C314   1086      -0.18     12.011
  4280       HAL2    376   POPC   H14X   1086       0.09      1.008
  4281       HAL2    376   POPC   H14Y   1086       0.09      1.008
  4282       CTL2    376   POPC   C315   1087      -0.18     12.011
  4283       HAL2    376   POPC   H15X   1087       0.09      1.008
  4284       HAL2    376   POPC   H15Y   1087       0.09      1.008
  4285       CTL3    376   POPC   C316   1088      -0.27     12.011
  4286       HAL3    376   POPC   H16X   1088       0.09      1.008
  4287       HAL3    376   POPC   H16Y   1088       0.09      1.008
  4288       HAL3    376   POPC   H16Z   1088       0.09      1.008   ; qtot 0
; residue 377 POPC rtp POPC q  0.0
  4289        NTL    377   POPC      N   1089       -0.6     14.007
  4290       CTL2    377   POPC    C12   1089       -0.1     12.011
  4291         HL    377   POPC   H12A   1089       0.25      1.008
  4292         HL    377   POPC   H12B   1089       0.25      1.008
  4293       CTL5    377   POPC    C13   1089      -0.35     12.011
  4294         HL    377   POPC   H13A   1089       0.25      1.008
  4295         HL    377   POPC   H13B   1089       0.25      1.008
  4296         HL    377   POPC   H13C   1089       0.25      1.008
  4297       CTL5    377   POPC    C14   1089      -0.35     12.011
  4298         HL    377   POPC   H14A   1089       0.25      1.008
  4299         HL    377   POPC   H14B   1089       0.25      1.008
  4300         HL    377   POPC   H14C   1089       0.25      1.008
  4301       CTL5    377   POPC    C15   1089      -0.35     12.011
  4302         HL    377   POPC   H15A   1089       0.25      1.008
  4303         HL    377   POPC   H15B   1089       0.25      1.008
  4304         HL    377   POPC   H15C   1089       0.25      1.008
  4305       CTL2    377   POPC    C11   1090      -0.08     12.011
  4306       HAL2    377   POPC   H11A   1090       0.09      1.008
  4307       HAL2    377   POPC   H11B   1090       0.09      1.008
  4308         PL    377   POPC      P   1090        1.5     30.974
  4309        O2L    377   POPC    O13   1090      -0.78    15.9994
  4310        O2L    377   POPC    O14   1090      -0.78    15.9994
  4311       OSLP    377   POPC    O12   1090      -0.57    15.9994
  4312       OSLP    377   POPC    O11   1090      -0.57    15.9994
  4313       CTL2    377   POPC     C1   1090      -0.08     12.011
  4314       HAL2    377   POPC     HA   1090       0.09      1.008
  4315       HAL2    377   POPC     HB   1090       0.09      1.008
  4316       CTL1    377   POPC     C2   1091       0.17     12.011
  4317       HAL1    377   POPC     HS   1091       0.09      1.008
  4318        OSL    377   POPC    O21   1091      -0.49    15.9994
  4319         CL    377   POPC    C21   1091        0.9     12.011
  4320        OBL    377   POPC    O22   1091      -0.63    15.9994
  4321       CTL2    377   POPC    C22   1091      -0.22     12.011
  4322       HAL2    377   POPC    H2R   1091       0.09      1.008
  4323       HAL2    377   POPC    H2S   1091       0.09      1.008
  4324       CTL2    377   POPC     C3   1092       0.08     12.011
  4325       HAL2    377   POPC     HX   1092       0.09      1.008
  4326       HAL2    377   POPC     HY   1092       0.09      1.008
  4327        OSL    377   POPC    O31   1092      -0.49    15.9994
  4328         CL    377   POPC    C31   1092        0.9     12.011
  4329        OBL    377   POPC    O32   1092      -0.63    15.9994
  4330       CTL2    377   POPC    C32   1092      -0.22     12.011
  4331       HAL2    377   POPC    H2X   1092       0.09      1.008
  4332       HAL2    377   POPC    H2Y   1092       0.09      1.008
  4333       CTL2    377   POPC    C23   1093      -0.18     12.011
  4334       HAL2    377   POPC    H3R   1093       0.09      1.008
  4335       HAL2    377   POPC    H3S   1093       0.09      1.008
  4336       CTL2    377   POPC    C24   1094      -0.18     12.011
  4337       HAL2    377   POPC    H4R   1094       0.09      1.008
  4338       HAL2    377   POPC    H4S   1094       0.09      1.008
  4339       CTL2    377   POPC    C25   1095      -0.18     12.011
  4340       HAL2    377   POPC    H5R   1095       0.09      1.008
  4341       HAL2    377   POPC    H5S   1095       0.09      1.008
  4342       CTL2    377   POPC    C26   1096      -0.18     12.011
  4343       HAL2    377   POPC    H6R   1096       0.09      1.008
  4344       HAL2    377   POPC    H6S   1096       0.09      1.008
  4345       CTL2    377   POPC    C27   1097      -0.18     12.011
  4346       HAL2    377   POPC    H7R   1097       0.09      1.008
  4347       HAL2    377   POPC    H7S   1097       0.09      1.008
  4348       CTL2    377   POPC    C28   1098      -0.18     12.011
  4349       HAL2    377   POPC    H8R   1098       0.09      1.008
  4350       HAL2    377   POPC    H8S   1098       0.09      1.008
  4351       CEL1    377   POPC    C29   1099      -0.15     12.011
  4352       HEL1    377   POPC    H91   1099       0.15      1.008
  4353       CEL1    377   POPC   C210   1100      -0.15     12.011
  4354       HEL1    377   POPC   H101   1100       0.15      1.008
  4355       CTL2    377   POPC   C211   1101      -0.18     12.011
  4356       HAL2    377   POPC   H11R   1101       0.09      1.008
  4357       HAL2    377   POPC   H11S   1101       0.09      1.008
  4358       CTL2    377   POPC   C212   1102      -0.18     12.011
  4359       HAL2    377   POPC   H12R   1102       0.09      1.008
  4360       HAL2    377   POPC   H12S   1102       0.09      1.008
  4361       CTL2    377   POPC   C213   1103      -0.18     12.011
  4362       HAL2    377   POPC   H13R   1103       0.09      1.008
  4363       HAL2    377   POPC   H13S   1103       0.09      1.008
  4364       CTL2    377   POPC   C214   1104      -0.18     12.011
  4365       HAL2    377   POPC   H14R   1104       0.09      1.008
  4366       HAL2    377   POPC   H14S   1104       0.09      1.008
  4367       CTL2    377   POPC   C215   1105      -0.18     12.011
  4368       HAL2    377   POPC   H15R   1105       0.09      1.008
  4369       HAL2    377   POPC   H15S   1105       0.09      1.008
  4370       CTL2    377   POPC   C216   1106      -0.18     12.011
  4371       HAL2    377   POPC   H16R   1106       0.09      1.008
  4372       HAL2    377   POPC   H16S   1106       0.09      1.008
  4373       CTL2    377   POPC   C217   1107      -0.18     12.011
  4374       HAL2    377   POPC   H17R   1107       0.09      1.008
  4375       HAL2    377   POPC   H17S   1107       0.09      1.008
  4376       CTL3    377   POPC   C218   1108      -0.27     12.011
  4377       HAL3    377   POPC   H18R   1108       0.09      1.008
  4378       HAL3    377   POPC   H18S   1108       0.09      1.008
  4379       HAL3    377   POPC   H18T   1108       0.09      1.008
  4380       CTL2    377   POPC    C33   1109      -0.18     12.011
  4381       HAL2    377   POPC    H3X   1109       0.09      1.008
  4382       HAL2    377   POPC    H3Y   1109       0.09      1.008
  4383       CTL2    377   POPC    C34   1110      -0.18     12.011
  4384       HAL2    377   POPC    H4X   1110       0.09      1.008
  4385       HAL2    377   POPC    H4Y   1110       0.09      1.008
  4386       CTL2    377   POPC    C35   1111      -0.18     12.011
  4387       HAL2    377   POPC    H5X   1111       0.09      1.008
  4388       HAL2    377   POPC    H5Y   1111       0.09      1.008
  4389       CTL2    377   POPC    C36   1112      -0.18     12.011
  4390       HAL2    377   POPC    H6X   1112       0.09      1.008
  4391       HAL2    377   POPC    H6Y   1112       0.09      1.008
  4392       CTL2    377   POPC    C37   1113      -0.18     12.011
  4393       HAL2    377   POPC    H7X   1113       0.09      1.008
  4394       HAL2    377   POPC    H7Y   1113       0.09      1.008
  4395       CTL2    377   POPC    C38   1114      -0.18     12.011
  4396       HAL2    377   POPC    H8X   1114       0.09      1.008
  4397       HAL2    377   POPC    H8Y   1114       0.09      1.008
  4398       CTL2    377   POPC    C39   1115      -0.18     12.011
  4399       HAL2    377   POPC    H9X   1115       0.09      1.008
  4400       HAL2    377   POPC    H9Y   1115       0.09      1.008
  4401       CTL2    377   POPC   C310   1116      -0.18     12.011
  4402       HAL2    377   POPC   H10X   1116       0.09      1.008
  4403       HAL2    377   POPC   H10Y   1116       0.09      1.008
  4404       CTL2    377   POPC   C311   1117      -0.18     12.011
  4405       HAL2    377   POPC   H11X   1117       0.09      1.008
  4406       HAL2    377   POPC   H11Y   1117       0.09      1.008
  4407       CTL2    377   POPC   C312   1118      -0.18     12.011
  4408       HAL2    377   POPC   H12X   1118       0.09      1.008
  4409       HAL2    377   POPC   H12Y   1118       0.09      1.008
  4410       CTL2    377   POPC   C313   1119      -0.18     12.011
  4411       HAL2    377   POPC   H13X   1119       0.09      1.008
  4412       HAL2    377   POPC   H13Y   1119       0.09      1.008
  4413       CTL2    377   POPC   C314   1120      -0.18     12.011
  4414       HAL2    377   POPC   H14X   1120       0.09      1.008
  4415       HAL2    377   POPC   H14Y   1120       0.09      1.008
  4416       CTL2    377   POPC   C315   1121      -0.18     12.011
  4417       HAL2    377   POPC   H15X   1121       0.09      1.008
  4418       HAL2    377   POPC   H15Y   1121       0.09      1.008
  4419       CTL3    377   POPC   C316   1122      -0.27     12.011
  4420       HAL3    377   POPC   H16X   1122       0.09      1.008
  4421       HAL3    377   POPC   H16Y   1122       0.09      1.008
  4422       HAL3    377   POPC   H16Z   1122       0.09      1.008   ; qtot 0
; residue 378 POPC rtp POPC q  0.0
  4423        NTL    378   POPC      N   1123       -0.6     14.007
  4424       CTL2    378   POPC    C12   1123       -0.1     12.011
  4425         HL    378   POPC   H12A   1123       0.25      1.008
  4426         HL    378   POPC   H12B   1123       0.25      1.008
  4427       CTL5    378   POPC    C13   1123      -0.35     12.011
  4428         HL    378   POPC   H13A   1123       0.25      1.008
  4429         HL    378   POPC   H13B   1123       0.25      1.008
  4430         HL    378   POPC   H13C   1123       0.25      1.008
  4431       CTL5    378   POPC    C14   1123      -0.35     12.011
  4432         HL    378   POPC   H14A   1123       0.25      1.008
  4433         HL    378   POPC   H14B   1123       0.25      1.008
  4434         HL    378   POPC   H14C   1123       0.25      1.008
  4435       CTL5    378   POPC    C15   1123      -0.35     12.011
  4436         HL    378   POPC   H15A   1123       0.25      1.008
  4437         HL    378   POPC   H15B   1123       0.25      1.008
  4438         HL    378   POPC   H15C   1123       0.25      1.008
  4439       CTL2    378   POPC    C11   1124      -0.08     12.011
  4440       HAL2    378   POPC   H11A   1124       0.09      1.008
  4441       HAL2    378   POPC   H11B   1124       0.09      1.008
  4442         PL    378   POPC      P   1124        1.5     30.974
  4443        O2L    378   POPC    O13   1124      -0.78    15.9994
  4444        O2L    378   POPC    O14   1124      -0.78    15.9994
  4445       OSLP    378   POPC    O12   1124      -0.57    15.9994
  4446       OSLP    378   POPC    O11   1124      -0.57    15.9994
  4447       CTL2    378   POPC     C1   1124      -0.08     12.011
  4448       HAL2    378   POPC     HA   1124       0.09      1.008
  4449       HAL2    378   POPC     HB   1124       0.09      1.008
  4450       CTL1    378   POPC     C2   1125       0.17     12.011
  4451       HAL1    378   POPC     HS   1125       0.09      1.008
  4452        OSL    378   POPC    O21   1125      -0.49    15.9994
  4453         CL    378   POPC    C21   1125        0.9     12.011
  4454        OBL    378   POPC    O22   1125      -0.63    15.9994
  4455       CTL2    378   POPC    C22   1125      -0.22     12.011
  4456       HAL2    378   POPC    H2R   1125       0.09      1.008
  4457       HAL2    378   POPC    H2S   1125       0.09      1.008
  4458       CTL2    378   POPC     C3   1126       0.08     12.011
  4459       HAL2    378   POPC     HX   1126       0.09      1.008
  4460       HAL2    378   POPC     HY   1126       0.09      1.008
  4461        OSL    378   POPC    O31   1126      -0.49    15.9994
  4462         CL    378   POPC    C31   1126        0.9     12.011
  4463        OBL    378   POPC    O32   1126      -0.63    15.9994
  4464       CTL2    378   POPC    C32   1126      -0.22     12.011
  4465       HAL2    378   POPC    H2X   1126       0.09      1.008
  4466       HAL2    378   POPC    H2Y   1126       0.09      1.008
  4467       CTL2    378   POPC    C23   1127      -0.18     12.011
  4468       HAL2    378   POPC    H3R   1127       0.09      1.008
  4469       HAL2    378   POPC    H3S   1127       0.09      1.008
  4470       CTL2    378   POPC    C24   1128      -0.18     12.011
  4471       HAL2    378   POPC    H4R   1128       0.09      1.008
  4472       HAL2    378   POPC    H4S   1128       0.09      1.008
  4473       CTL2    378   POPC    C25   1129      -0.18     12.011
  4474       HAL2    378   POPC    H5R   1129       0.09      1.008
  4475       HAL2    378   POPC    H5S   1129       0.09      1.008
  4476       CTL2    378   POPC    C26   1130      -0.18     12.011
  4477       HAL2    378   POPC    H6R   1130       0.09      1.008
  4478       HAL2    378   POPC    H6S   1130       0.09      1.008
  4479       CTL2    378   POPC    C27   1131      -0.18     12.011
  4480       HAL2    378   POPC    H7R   1131       0.09      1.008
  4481       HAL2    378   POPC    H7S   1131       0.09      1.008
  4482       CTL2    378   POPC    C28   1132      -0.18     12.011
  4483       HAL2    378   POPC    H8R   1132       0.09      1.008
  4484       HAL2    378   POPC    H8S   1132       0.09      1.008
  4485       CEL1    378   POPC    C29   1133      -0.15     12.011
  4486       HEL1    378   POPC    H91   1133       0.15      1.008
  4487       CEL1    378   POPC   C210   1134      -0.15     12.011
  4488       HEL1    378   POPC   H101   1134       0.15      1.008
  4489       CTL2    378   POPC   C211   1135      -0.18     12.011
  4490       HAL2    378   POPC   H11R   1135       0.09      1.008
  4491       HAL2    378   POPC   H11S   1135       0.09      1.008
  4492       CTL2    378   POPC   C212   1136      -0.18     12.011
  4493       HAL2    378   POPC   H12R   1136       0.09      1.008
  4494       HAL2    378   POPC   H12S   1136       0.09      1.008
  4495       CTL2    378   POPC   C213   1137      -0.18     12.011
  4496       HAL2    378   POPC   H13R   1137       0.09      1.008
  4497       HAL2    378   POPC   H13S   1137       0.09      1.008
  4498       CTL2    378   POPC   C214   1138      -0.18     12.011
  4499       HAL2    378   POPC   H14R   1138       0.09      1.008
  4500       HAL2    378   POPC   H14S   1138       0.09      1.008
  4501       CTL2    378   POPC   C215   1139      -0.18     12.011
  4502       HAL2    378   POPC   H15R   1139       0.09      1.008
  4503       HAL2    378   POPC   H15S   1139       0.09      1.008
  4504       CTL2    378   POPC   C216   1140      -0.18     12.011
  4505       HAL2    378   POPC   H16R   1140       0.09      1.008
  4506       HAL2    378   POPC   H16S   1140       0.09      1.008
  4507       CTL2    378   POPC   C217   1141      -0.18     12.011
  4508       HAL2    378   POPC   H17R   1141       0.09      1.008
  4509       HAL2    378   POPC   H17S   1141       0.09      1.008
  4510       CTL3    378   POPC   C218   1142      -0.27     12.011
  4511       HAL3    378   POPC   H18R   1142       0.09      1.008
  4512       HAL3    378   POPC   H18S   1142       0.09      1.008
  4513       HAL3    378   POPC   H18T   1142       0.09      1.008
  4514       CTL2    378   POPC    C33   1143      -0.18     12.011
  4515       HAL2    378   POPC    H3X   1143       0.09      1.008
  4516       HAL2    378   POPC    H3Y   1143       0.09      1.008
  4517       CTL2    378   POPC    C34   1144      -0.18     12.011
  4518       HAL2    378   POPC    H4X   1144       0.09      1.008
  4519       HAL2    378   POPC    H4Y   1144       0.09      1.008
  4520       CTL2    378   POPC    C35   1145      -0.18     12.011
  4521       HAL2    378   POPC    H5X   1145       0.09      1.008
  4522       HAL2    378   POPC    H5Y   1145       0.09      1.008
  4523       CTL2    378   POPC    C36   1146      -0.18     12.011
  4524       HAL2    378   POPC    H6X   1146       0.09      1.008
  4525       HAL2    378   POPC    H6Y   1146       0.09      1.008
  4526       CTL2    378   POPC    C37   1147      -0.18     12.011
  4527       HAL2    378   POPC    H7X   1147       0.09      1.008
  4528       HAL2    378   POPC    H7Y   1147       0.09      1.008
  4529       CTL2    378   POPC    C38   1148      -0.18     12.011
  4530       HAL2    378   POPC    H8X   1148       0.09      1.008
  4531       HAL2    378   POPC    H8Y   1148       0.09      1.008
  4532       CTL2    378   POPC    C39   1149      -0.18     12.011
  4533       HAL2    378   POPC    H9X   1149       0.09      1.008
  4534       HAL2    378   POPC    H9Y   1149       0.09      1.008
  4535       CTL2    378   POPC   C310   1150      -0.18     12.011
  4536       HAL2    378   POPC   H10X   1150       0.09      1.008
  4537       HAL2    378   POPC   H10Y   1150       0.09      1.008
  4538       CTL2    378   POPC   C311   1151      -0.18     12.011
  4539       HAL2    378   POPC   H11X   1151       0.09      1.008
  4540       HAL2    378   POPC   H11Y   1151       0.09      1.008
  4541       CTL2    378   POPC   C312   1152      -0.18     12.011
  4542       HAL2    378   POPC   H12X   1152       0.09      1.008
  4543       HAL2    378   POPC   H12Y   1152       0.09      1.008
  4544       CTL2    378   POPC   C313   1153      -0.18     12.011
  4545       HAL2    378   POPC   H13X   1153       0.09      1.008
  4546       HAL2    378   POPC   H13Y   1153       0.09      1.008
  4547       CTL2    378   POPC   C314   1154      -0.18     12.011
  4548       HAL2    378   POPC   H14X   1154       0.09      1.008
  4549       HAL2    378   POPC   H14Y   1154       0.09      1.008
  4550       CTL2    378   POPC   C315   1155      -0.18     12.011
  4551       HAL2    378   POPC   H15X   1155       0.09      1.008
  4552       HAL2    378   POPC   H15Y   1155       0.09      1.008
  4553       CTL3    378   POPC   C316   1156      -0.27     12.011
  4554       HAL3    378   POPC   H16X   1156       0.09      1.008
  4555       HAL3    378   POPC   H16Y   1156       0.09      1.008
  4556       HAL3    378   POPC   H16Z   1156       0.09      1.008   ; qtot 0
; residue 379 POPC rtp POPC q  0.0
  4557        NTL    379   POPC      N   1157       -0.6     14.007
  4558       CTL2    379   POPC    C12   1157       -0.1     12.011
  4559         HL    379   POPC   H12A   1157       0.25      1.008
  4560         HL    379   POPC   H12B   1157       0.25      1.008
  4561       CTL5    379   POPC    C13   1157      -0.35     12.011
  4562         HL    379   POPC   H13A   1157       0.25      1.008
  4563         HL    379   POPC   H13B   1157       0.25      1.008
  4564         HL    379   POPC   H13C   1157       0.25      1.008
  4565       CTL5    379   POPC    C14   1157      -0.35     12.011
  4566         HL    379   POPC   H14A   1157       0.25      1.008
  4567         HL    379   POPC   H14B   1157       0.25      1.008
  4568         HL    379   POPC   H14C   1157       0.25      1.008
  4569       CTL5    379   POPC    C15   1157      -0.35     12.011
  4570         HL    379   POPC   H15A   1157       0.25      1.008
  4571         HL    379   POPC   H15B   1157       0.25      1.008
  4572         HL    379   POPC   H15C   1157       0.25      1.008
  4573       CTL2    379   POPC    C11   1158      -0.08     12.011
  4574       HAL2    379   POPC   H11A   1158       0.09      1.008
  4575       HAL2    379   POPC   H11B   1158       0.09      1.008
  4576         PL    379   POPC      P   1158        1.5     30.974
  4577        O2L    379   POPC    O13   1158      -0.78    15.9994
  4578        O2L    379   POPC    O14   1158      -0.78    15.9994
  4579       OSLP    379   POPC    O12   1158      -0.57    15.9994
  4580       OSLP    379   POPC    O11   1158      -0.57    15.9994
  4581       CTL2    379   POPC     C1   1158      -0.08     12.011
  4582       HAL2    379   POPC     HA   1158       0.09      1.008
  4583       HAL2    379   POPC     HB   1158       0.09      1.008
  4584       CTL1    379   POPC     C2   1159       0.17     12.011
  4585       HAL1    379   POPC     HS   1159       0.09      1.008
  4586        OSL    379   POPC    O21   1159      -0.49    15.9994
  4587         CL    379   POPC    C21   1159        0.9     12.011
  4588        OBL    379   POPC    O22   1159      -0.63    15.9994
  4589       CTL2    379   POPC    C22   1159      -0.22     12.011
  4590       HAL2    379   POPC    H2R   1159       0.09      1.008
  4591       HAL2    379   POPC    H2S   1159       0.09      1.008
  4592       CTL2    379   POPC     C3   1160       0.08     12.011
  4593       HAL2    379   POPC     HX   1160       0.09      1.008
  4594       HAL2    379   POPC     HY   1160       0.09      1.008
  4595        OSL    379   POPC    O31   1160      -0.49    15.9994
  4596         CL    379   POPC    C31   1160        0.9     12.011
  4597        OBL    379   POPC    O32   1160      -0.63    15.9994
  4598       CTL2    379   POPC    C32   1160      -0.22     12.011
  4599       HAL2    379   POPC    H2X   1160       0.09      1.008
  4600       HAL2    379   POPC    H2Y   1160       0.09      1.008
  4601       CTL2    379   POPC    C23   1161      -0.18     12.011
  4602       HAL2    379   POPC    H3R   1161       0.09      1.008
  4603       HAL2    379   POPC    H3S   1161       0.09      1.008
  4604       CTL2    379   POPC    C24   1162      -0.18     12.011
  4605       HAL2    379   POPC    H4R   1162       0.09      1.008
  4606       HAL2    379   POPC    H4S   1162       0.09      1.008
  4607       CTL2    379   POPC    C25   1163      -0.18     12.011
  4608       HAL2    379   POPC    H5R   1163       0.09      1.008
  4609       HAL2    379   POPC    H5S   1163       0.09      1.008
  4610       CTL2    379   POPC    C26   1164      -0.18     12.011
  4611       HAL2    379   POPC    H6R   1164       0.09      1.008
  4612       HAL2    379   POPC    H6S   1164       0.09      1.008
  4613       CTL2    379   POPC    C27   1165      -0.18     12.011
  4614       HAL2    379   POPC    H7R   1165       0.09      1.008
  4615       HAL2    379   POPC    H7S   1165       0.09      1.008
  4616       CTL2    379   POPC    C28   1166      -0.18     12.011
  4617       HAL2    379   POPC    H8R   1166       0.09      1.008
  4618       HAL2    379   POPC    H8S   1166       0.09      1.008
  4619       CEL1    379   POPC    C29   1167      -0.15     12.011
  4620       HEL1    379   POPC    H91   1167       0.15      1.008
  4621       CEL1    379   POPC   C210   1168      -0.15     12.011
  4622       HEL1    379   POPC   H101   1168       0.15      1.008
  4623       CTL2    379   POPC   C211   1169      -0.18     12.011
  4624       HAL2    379   POPC   H11R   1169       0.09      1.008
  4625       HAL2    379   POPC   H11S   1169       0.09      1.008
  4626       CTL2    379   POPC   C212   1170      -0.18     12.011
  4627       HAL2    379   POPC   H12R   1170       0.09      1.008
  4628       HAL2    379   POPC   H12S   1170       0.09      1.008
  4629       CTL2    379   POPC   C213   1171      -0.18     12.011
  4630       HAL2    379   POPC   H13R   1171       0.09      1.008
  4631       HAL2    379   POPC   H13S   1171       0.09      1.008
  4632       CTL2    379   POPC   C214   1172      -0.18     12.011
  4633       HAL2    379   POPC   H14R   1172       0.09      1.008
  4634       HAL2    379   POPC   H14S   1172       0.09      1.008
  4635       CTL2    379   POPC   C215   1173      -0.18     12.011
  4636       HAL2    379   POPC   H15R   1173       0.09      1.008
  4637       HAL2    379   POPC   H15S   1173       0.09      1.008
  4638       CTL2    379   POPC   C216   1174      -0.18     12.011
  4639       HAL2    379   POPC   H16R   1174       0.09      1.008
  4640       HAL2    379   POPC   H16S   1174       0.09      1.008
  4641       CTL2    379   POPC   C217   1175      -0.18     12.011
  4642       HAL2    379   POPC   H17R   1175       0.09      1.008
  4643       HAL2    379   POPC   H17S   1175       0.09      1.008
  4644       CTL3    379   POPC   C218   1176      -0.27     12.011
  4645       HAL3    379   POPC   H18R   1176       0.09      1.008
  4646       HAL3    379   POPC   H18S   1176       0.09      1.008
  4647       HAL3    379   POPC   H18T   1176       0.09      1.008
  4648       CTL2    379   POPC    C33   1177      -0.18     12.011
  4649       HAL2    379   POPC    H3X   1177       0.09      1.008
  4650       HAL2    379   POPC    H3Y   1177       0.09      1.008
  4651       CTL2    379   POPC    C34   1178      -0.18     12.011
  4652       HAL2    379   POPC    H4X   1178       0.09      1.008
  4653       HAL2    379   POPC    H4Y   1178       0.09      1.008
  4654       CTL2    379   POPC    C35   1179      -0.18     12.011
  4655       HAL2    379   POPC    H5X   1179       0.09      1.008
  4656       HAL2    379   POPC    H5Y   1179       0.09      1.008
  4657       CTL2    379   POPC    C36   1180      -0.18     12.011
  4658       HAL2    379   POPC    H6X   1180       0.09      1.008
  4659       HAL2    379   POPC    H6Y   1180       0.09      1.008
  4660       CTL2    379   POPC    C37   1181      -0.18     12.011
  4661       HAL2    379   POPC    H7X   1181       0.09      1.008
  4662       HAL2    379   POPC    H7Y   1181       0.09      1.008
  4663       CTL2    379   POPC    C38   1182      -0.18     12.011
  4664       HAL2    379   POPC    H8X   1182       0.09      1.008
  4665       HAL2    379   POPC    H8Y   1182       0.09      1.008
  4666       CTL2    379   POPC    C39   1183      -0.18     12.011
  4667       HAL2    379   POPC    H9X   1183       0.09      1.008
  4668       HAL2    379   POPC    H9Y   1183       0.09      1.008
  4669       CTL2    379   POPC   C310   1184      -0.18     12.011
  4670       HAL2    379   POPC   H10X   1184       0.09      1.008
  4671       HAL2    379   POPC   H10Y   1184       0.09      1.008
  4672       CTL2    379   POPC   C311   1185      -0.18     12.011
  4673       HAL2    379   POPC   H11X   1185       0.09      1.008
  4674       HAL2    379   POPC   H11Y   1185       0.09      1.008
  4675       CTL2    379   POPC   C312   1186      -0.18     12.011
  4676       HAL2    379   POPC   H12X   1186       0.09      1.008
  4677       HAL2    379   POPC   H12Y   1186       0.09      1.008
  4678       CTL2    379   POPC   C313   1187      -0.18     12.011
  4679       HAL2    379   POPC   H13X   1187       0.09      1.008
  4680       HAL2    379   POPC   H13Y   1187       0.09      1.008
  4681       CTL2    379   POPC   C314   1188      -0.18     12.011
  4682       HAL2    379   POPC   H14X   1188       0.09      1.008
  4683       HAL2    379   POPC   H14Y   1188       0.09      1.008
  4684       CTL2    379   POPC   C315   1189      -0.18     12.011
  4685       HAL2    379   POPC   H15X   1189       0.09      1.008
  4686       HAL2    379   POPC   H15Y   1189       0.09      1.008
  4687       CTL3    379   POPC   C316   1190      -0.27     12.011
  4688       HAL3    379   POPC   H16X   1190       0.09      1.008
  4689       HAL3    379   POPC   H16Y   1190       0.09      1.008
  4690       HAL3    379   POPC   H16Z   1190       0.09      1.008   ; qtot 0
; residue 380 POPC rtp POPC q  0.0
  4691        NTL    380   POPC      N   1191       -0.6     14.007
  4692       CTL2    380   POPC    C12   1191       -0.1     12.011
  4693         HL    380   POPC   H12A   1191       0.25      1.008
  4694         HL    380   POPC   H12B   1191       0.25      1.008
  4695       CTL5    380   POPC    C13   1191      -0.35     12.011
  4696         HL    380   POPC   H13A   1191       0.25      1.008
  4697         HL    380   POPC   H13B   1191       0.25      1.008
  4698         HL    380   POPC   H13C   1191       0.25      1.008
  4699       CTL5    380   POPC    C14   1191      -0.35     12.011
  4700         HL    380   POPC   H14A   1191       0.25      1.008
  4701         HL    380   POPC   H14B   1191       0.25      1.008
  4702         HL    380   POPC   H14C   1191       0.25      1.008
  4703       CTL5    380   POPC    C15   1191      -0.35     12.011
  4704         HL    380   POPC   H15A   1191       0.25      1.008
  4705         HL    380   POPC   H15B   1191       0.25      1.008
  4706         HL    380   POPC   H15C   1191       0.25      1.008
  4707       CTL2    380   POPC    C11   1192      -0.08     12.011
  4708       HAL2    380   POPC   H11A   1192       0.09      1.008
  4709       HAL2    380   POPC   H11B   1192       0.09      1.008
  4710         PL    380   POPC      P   1192        1.5     30.974
  4711        O2L    380   POPC    O13   1192      -0.78    15.9994
  4712        O2L    380   POPC    O14   1192      -0.78    15.9994
  4713       OSLP    380   POPC    O12   1192      -0.57    15.9994
  4714       OSLP    380   POPC    O11   1192      -0.57    15.9994
  4715       CTL2    380   POPC     C1   1192      -0.08     12.011
  4716       HAL2    380   POPC     HA   1192       0.09      1.008
  4717       HAL2    380   POPC     HB   1192       0.09      1.008
  4718       CTL1    380   POPC     C2   1193       0.17     12.011
  4719       HAL1    380   POPC     HS   1193       0.09      1.008
  4720        OSL    380   POPC    O21   1193      -0.49    15.9994
  4721         CL    380   POPC    C21   1193        0.9     12.011
  4722        OBL    380   POPC    O22   1193      -0.63    15.9994
  4723       CTL2    380   POPC    C22   1193      -0.22     12.011
  4724       HAL2    380   POPC    H2R   1193       0.09      1.008
  4725       HAL2    380   POPC    H2S   1193       0.09      1.008
  4726       CTL2    380   POPC     C3   1194       0.08     12.011
  4727       HAL2    380   POPC     HX   1194       0.09      1.008
  4728       HAL2    380   POPC     HY   1194       0.09      1.008
  4729        OSL    380   POPC    O31   1194      -0.49    15.9994
  4730         CL    380   POPC    C31   1194        0.9     12.011
  4731        OBL    380   POPC    O32   1194      -0.63    15.9994
  4732       CTL2    380   POPC    C32   1194      -0.22     12.011
  4733       HAL2    380   POPC    H2X   1194       0.09      1.008
  4734       HAL2    380   POPC    H2Y   1194       0.09      1.008
  4735       CTL2    380   POPC    C23   1195      -0.18     12.011
  4736       HAL2    380   POPC    H3R   1195       0.09      1.008
  4737       HAL2    380   POPC    H3S   1195       0.09      1.008
  4738       CTL2    380   POPC    C24   1196      -0.18     12.011
  4739       HAL2    380   POPC    H4R   1196       0.09      1.008
  4740       HAL2    380   POPC    H4S   1196       0.09      1.008
  4741       CTL2    380   POPC    C25   1197      -0.18     12.011
  4742       HAL2    380   POPC    H5R   1197       0.09      1.008
  4743       HAL2    380   POPC    H5S   1197       0.09      1.008
  4744       CTL2    380   POPC    C26   1198      -0.18     12.011
  4745       HAL2    380   POPC    H6R   1198       0.09      1.008
  4746       HAL2    380   POPC    H6S   1198       0.09      1.008
  4747       CTL2    380   POPC    C27   1199      -0.18     12.011
  4748       HAL2    380   POPC    H7R   1199       0.09      1.008
  4749       HAL2    380   POPC    H7S   1199       0.09      1.008
  4750       CTL2    380   POPC    C28   1200      -0.18     12.011
  4751       HAL2    380   POPC    H8R   1200       0.09      1.008
  4752       HAL2    380   POPC    H8S   1200       0.09      1.008
  4753       CEL1    380   POPC    C29   1201      -0.15     12.011
  4754       HEL1    380   POPC    H91   1201       0.15      1.008
  4755       CEL1    380   POPC   C210   1202      -0.15     12.011
  4756       HEL1    380   POPC   H101   1202       0.15      1.008
  4757       CTL2    380   POPC   C211   1203      -0.18     12.011
  4758       HAL2    380   POPC   H11R   1203       0.09      1.008
  4759       HAL2    380   POPC   H11S   1203       0.09      1.008
  4760       CTL2    380   POPC   C212   1204      -0.18     12.011
  4761       HAL2    380   POPC   H12R   1204       0.09      1.008
  4762       HAL2    380   POPC   H12S   1204       0.09      1.008
  4763       CTL2    380   POPC   C213   1205      -0.18     12.011
  4764       HAL2    380   POPC   H13R   1205       0.09      1.008
  4765       HAL2    380   POPC   H13S   1205       0.09      1.008
  4766       CTL2    380   POPC   C214   1206      -0.18     12.011
  4767       HAL2    380   POPC   H14R   1206       0.09      1.008
  4768       HAL2    380   POPC   H14S   1206       0.09      1.008
  4769       CTL2    380   POPC   C215   1207      -0.18     12.011
  4770       HAL2    380   POPC   H15R   1207       0.09      1.008
  4771       HAL2    380   POPC   H15S   1207       0.09      1.008
  4772       CTL2    380   POPC   C216   1208      -0.18     12.011
  4773       HAL2    380   POPC   H16R   1208       0.09      1.008
  4774       HAL2    380   POPC   H16S   1208       0.09      1.008
  4775       CTL2    380   POPC   C217   1209      -0.18     12.011
  4776       HAL2    380   POPC   H17R   1209       0.09      1.008
  4777       HAL2    380   POPC   H17S   1209       0.09      1.008
  4778       CTL3    380   POPC   C218   1210      -0.27     12.011
  4779       HAL3    380   POPC   H18R   1210       0.09      1.008
  4780       HAL3    380   POPC   H18S   1210       0.09      1.008
  4781       HAL3    380   POPC   H18T   1210       0.09      1.008
  4782       CTL2    380   POPC    C33   1211      -0.18     12.011
  4783       HAL2    380   POPC    H3X   1211       0.09      1.008
  4784       HAL2    380   POPC    H3Y   1211       0.09      1.008
  4785       CTL2    380   POPC    C34   1212      -0.18     12.011
  4786       HAL2    380   POPC    H4X   1212       0.09      1.008
  4787       HAL2    380   POPC    H4Y   1212       0.09      1.008
  4788       CTL2    380   POPC    C35   1213      -0.18     12.011
  4789       HAL2    380   POPC    H5X   1213       0.09      1.008
  4790       HAL2    380   POPC    H5Y   1213       0.09      1.008
  4791       CTL2    380   POPC    C36   1214      -0.18     12.011
  4792       HAL2    380   POPC    H6X   1214       0.09      1.008
  4793       HAL2    380   POPC    H6Y   1214       0.09      1.008
  4794       CTL2    380   POPC    C37   1215      -0.18     12.011
  4795       HAL2    380   POPC    H7X   1215       0.09      1.008
  4796       HAL2    380   POPC    H7Y   1215       0.09      1.008
  4797       CTL2    380   POPC    C38   1216      -0.18     12.011
  4798       HAL2    380   POPC    H8X   1216       0.09      1.008
  4799       HAL2    380   POPC    H8Y   1216       0.09      1.008
  4800       CTL2    380   POPC    C39   1217      -0.18     12.011
  4801       HAL2    380   POPC    H9X   1217       0.09      1.008
  4802       HAL2    380   POPC    H9Y   1217       0.09      1.008
  4803       CTL2    380   POPC   C310   1218      -0.18     12.011
  4804       HAL2    380   POPC   H10X   1218       0.09      1.008
  4805       HAL2    380   POPC   H10Y   1218       0.09      1.008
  4806       CTL2    380   POPC   C311   1219      -0.18     12.011
  4807       HAL2    380   POPC   H11X   1219       0.09      1.008
  4808       HAL2    380   POPC   H11Y   1219       0.09      1.008
  4809       CTL2    380   POPC   C312   1220      -0.18     12.011
  4810       HAL2    380   POPC   H12X   1220       0.09      1.008
  4811       HAL2    380   POPC   H12Y   1220       0.09      1.008
  4812       CTL2    380   POPC   C313   1221      -0.18     12.011
  4813       HAL2    380   POPC   H13X   1221       0.09      1.008
  4814       HAL2    380   POPC   H13Y   1221       0.09      1.008
  4815       CTL2    380   POPC   C314   1222      -0.18     12.011
  4816       HAL2    380   POPC   H14X   1222       0.09      1.008
  4817       HAL2    380   POPC   H14Y   1222       0.09      1.008
  4818       CTL2    380   POPC   C315   1223      -0.18     12.011
  4819       HAL2    380   POPC   H15X   1223       0.09      1.008
  4820       HAL2    380   POPC   H15Y   1223       0.09      1.008
  4821       CTL3    380   POPC   C316   1224      -0.27     12.011
  4822       HAL3    380   POPC   H16X   1224       0.09      1.008
  4823       HAL3    380   POPC   H16Y   1224       0.09      1.008
  4824       HAL3    380   POPC   H16Z   1224       0.09      1.008   ; qtot 0
; residue 381 POPC rtp POPC q  0.0
  4825        NTL    381   POPC      N   1225       -0.6     14.007
  4826       CTL2    381   POPC    C12   1225       -0.1     12.011
  4827         HL    381   POPC   H12A   1225       0.25      1.008
  4828         HL    381   POPC   H12B   1225       0.25      1.008
  4829       CTL5    381   POPC    C13   1225      -0.35     12.011
  4830         HL    381   POPC   H13A   1225       0.25      1.008
  4831         HL    381   POPC   H13B   1225       0.25      1.008
  4832         HL    381   POPC   H13C   1225       0.25      1.008
  4833       CTL5    381   POPC    C14   1225      -0.35     12.011
  4834         HL    381   POPC   H14A   1225       0.25      1.008
  4835         HL    381   POPC   H14B   1225       0.25      1.008
  4836         HL    381   POPC   H14C   1225       0.25      1.008
  4837       CTL5    381   POPC    C15   1225      -0.35     12.011
  4838         HL    381   POPC   H15A   1225       0.25      1.008
  4839         HL    381   POPC   H15B   1225       0.25      1.008
  4840         HL    381   POPC   H15C   1225       0.25      1.008
  4841       CTL2    381   POPC    C11   1226      -0.08     12.011
  4842       HAL2    381   POPC   H11A   1226       0.09      1.008
  4843       HAL2    381   POPC   H11B   1226       0.09      1.008
  4844         PL    381   POPC      P   1226        1.5     30.974
  4845        O2L    381   POPC    O13   1226      -0.78    15.9994
  4846        O2L    381   POPC    O14   1226      -0.78    15.9994
  4847       OSLP    381   POPC    O12   1226      -0.57    15.9994
  4848       OSLP    381   POPC    O11   1226      -0.57    15.9994
  4849       CTL2    381   POPC     C1   1226      -0.08     12.011
  4850       HAL2    381   POPC     HA   1226       0.09      1.008
  4851       HAL2    381   POPC     HB   1226       0.09      1.008
  4852       CTL1    381   POPC     C2   1227       0.17     12.011
  4853       HAL1    381   POPC     HS   1227       0.09      1.008
  4854        OSL    381   POPC    O21   1227      -0.49    15.9994
  4855         CL    381   POPC    C21   1227        0.9     12.011
  4856        OBL    381   POPC    O22   1227      -0.63    15.9994
  4857       CTL2    381   POPC    C22   1227      -0.22     12.011
  4858       HAL2    381   POPC    H2R   1227       0.09      1.008
  4859       HAL2    381   POPC    H2S   1227       0.09      1.008
  4860       CTL2    381   POPC     C3   1228       0.08     12.011
  4861       HAL2    381   POPC     HX   1228       0.09      1.008
  4862       HAL2    381   POPC     HY   1228       0.09      1.008
  4863        OSL    381   POPC    O31   1228      -0.49    15.9994
  4864         CL    381   POPC    C31   1228        0.9     12.011
  4865        OBL    381   POPC    O32   1228      -0.63    15.9994
  4866       CTL2    381   POPC    C32   1228      -0.22     12.011
  4867       HAL2    381   POPC    H2X   1228       0.09      1.008
  4868       HAL2    381   POPC    H2Y   1228       0.09      1.008
  4869       CTL2    381   POPC    C23   1229      -0.18     12.011
  4870       HAL2    381   POPC    H3R   1229       0.09      1.008
  4871       HAL2    381   POPC    H3S   1229       0.09      1.008
  4872       CTL2    381   POPC    C24   1230      -0.18     12.011
  4873       HAL2    381   POPC    H4R   1230       0.09      1.008
  4874       HAL2    381   POPC    H4S   1230       0.09      1.008
  4875       CTL2    381   POPC    C25   1231      -0.18     12.011
  4876       HAL2    381   POPC    H5R   1231       0.09      1.008
  4877       HAL2    381   POPC    H5S   1231       0.09      1.008
  4878       CTL2    381   POPC    C26   1232      -0.18     12.011
  4879       HAL2    381   POPC    H6R   1232       0.09      1.008
  4880       HAL2    381   POPC    H6S   1232       0.09      1.008
  4881       CTL2    381   POPC    C27   1233      -0.18     12.011
  4882       HAL2    381   POPC    H7R   1233       0.09      1.008
  4883       HAL2    381   POPC    H7S   1233       0.09      1.008
  4884       CTL2    381   POPC    C28   1234      -0.18     12.011
  4885       HAL2    381   POPC    H8R   1234       0.09      1.008
  4886       HAL2    381   POPC    H8S   1234       0.09      1.008
  4887       CEL1    381   POPC    C29   1235      -0.15     12.011
  4888       HEL1    381   POPC    H91   1235       0.15      1.008
  4889       CEL1    381   POPC   C210   1236      -0.15     12.011
  4890       HEL1    381   POPC   H101   1236       0.15      1.008
  4891       CTL2    381   POPC   C211   1237      -0.18     12.011
  4892       HAL2    381   POPC   H11R   1237       0.09      1.008
  4893       HAL2    381   POPC   H11S   1237       0.09      1.008
  4894       CTL2    381   POPC   C212   1238      -0.18     12.011
  4895       HAL2    381   POPC   H12R   1238       0.09      1.008
  4896       HAL2    381   POPC   H12S   1238       0.09      1.008
  4897       CTL2    381   POPC   C213   1239      -0.18     12.011
  4898       HAL2    381   POPC   H13R   1239       0.09      1.008
  4899       HAL2    381   POPC   H13S   1239       0.09      1.008
  4900       CTL2    381   POPC   C214   1240      -0.18     12.011
  4901       HAL2    381   POPC   H14R   1240       0.09      1.008
  4902       HAL2    381   POPC   H14S   1240       0.09      1.008
  4903       CTL2    381   POPC   C215   1241      -0.18     12.011
  4904       HAL2    381   POPC   H15R   1241       0.09      1.008
  4905       HAL2    381   POPC   H15S   1241       0.09      1.008
  4906       CTL2    381   POPC   C216   1242      -0.18     12.011
  4907       HAL2    381   POPC   H16R   1242       0.09      1.008
  4908       HAL2    381   POPC   H16S   1242       0.09      1.008
  4909       CTL2    381   POPC   C217   1243      -0.18     12.011
  4910       HAL2    381   POPC   H17R   1243       0.09      1.008
  4911       HAL2    381   POPC   H17S   1243       0.09      1.008
  4912       CTL3    381   POPC   C218   1244      -0.27     12.011
  4913       HAL3    381   POPC   H18R   1244       0.09      1.008
  4914       HAL3    381   POPC   H18S   1244       0.09      1.008
  4915       HAL3    381   POPC   H18T   1244       0.09      1.008
  4916       CTL2    381   POPC    C33   1245      -0.18     12.011
  4917       HAL2    381   POPC    H3X   1245       0.09      1.008
  4918       HAL2    381   POPC    H3Y   1245       0.09      1.008
  4919       CTL2    381   POPC    C34   1246      -0.18     12.011
  4920       HAL2    381   POPC    H4X   1246       0.09      1.008
  4921       HAL2    381   POPC    H4Y   1246       0.09      1.008
  4922       CTL2    381   POPC    C35   1247      -0.18     12.011
  4923       HAL2    381   POPC    H5X   1247       0.09      1.008
  4924       HAL2    381   POPC    H5Y   1247       0.09      1.008
  4925       CTL2    381   POPC    C36   1248      -0.18     12.011
  4926       HAL2    381   POPC    H6X   1248       0.09      1.008
  4927       HAL2    381   POPC    H6Y   1248       0.09      1.008
  4928       CTL2    381   POPC    C37   1249      -0.18     12.011
  4929       HAL2    381   POPC    H7X   1249       0.09      1.008
  4930       HAL2    381   POPC    H7Y   1249       0.09      1.008
  4931       CTL2    381   POPC    C38   1250      -0.18     12.011
  4932       HAL2    381   POPC    H8X   1250       0.09      1.008
  4933       HAL2    381   POPC    H8Y   1250       0.09      1.008
  4934       CTL2    381   POPC    C39   1251      -0.18     12.011
  4935       HAL2    381   POPC    H9X   1251       0.09      1.008
  4936       HAL2    381   POPC    H9Y   1251       0.09      1.008
  4937       CTL2    381   POPC   C310   1252      -0.18     12.011
  4938       HAL2    381   POPC   H10X   1252       0.09      1.008
  4939       HAL2    381   POPC   H10Y   1252       0.09      1.008
  4940       CTL2    381   POPC   C311   1253      -0.18     12.011
  4941       HAL2    381   POPC   H11X   1253       0.09      1.008
  4942       HAL2    381   POPC   H11Y   1253       0.09      1.008
  4943       CTL2    381   POPC   C312   1254      -0.18     12.011
  4944       HAL2    381   POPC   H12X   1254       0.09      1.008
  4945       HAL2    381   POPC   H12Y   1254       0.09      1.008
  4946       CTL2    381   POPC   C313   1255      -0.18     12.011
  4947       HAL2    381   POPC   H13X   1255       0.09      1.008
  4948       HAL2    381   POPC   H13Y   1255       0.09      1.008
  4949       CTL2    381   POPC   C314   1256      -0.18     12.011
  4950       HAL2    381   POPC   H14X   1256       0.09      1.008
  4951       HAL2    381   POPC   H14Y   1256       0.09      1.008
  4952       CTL2    381   POPC   C315   1257      -0.18     12.011
  4953       HAL2    381   POPC   H15X   1257       0.09      1.008
  4954       HAL2    381   POPC   H15Y   1257       0.09      1.008
  4955       CTL3    381   POPC   C316   1258      -0.27     12.011
  4956       HAL3    381   POPC   H16X   1258       0.09      1.008
  4957       HAL3    381   POPC   H16Y   1258       0.09      1.008
  4958       HAL3    381   POPC   H16Z   1258       0.09      1.008   ; qtot 0
; residue 382 POPC rtp POPC q  0.0
  4959        NTL    382   POPC      N   1259       -0.6     14.007
  4960       CTL2    382   POPC    C12   1259       -0.1     12.011
  4961         HL    382   POPC   H12A   1259       0.25      1.008
  4962         HL    382   POPC   H12B   1259       0.25      1.008
  4963       CTL5    382   POPC    C13   1259      -0.35     12.011
  4964         HL    382   POPC   H13A   1259       0.25      1.008
  4965         HL    382   POPC   H13B   1259       0.25      1.008
  4966         HL    382   POPC   H13C   1259       0.25      1.008
  4967       CTL5    382   POPC    C14   1259      -0.35     12.011
  4968         HL    382   POPC   H14A   1259       0.25      1.008
  4969         HL    382   POPC   H14B   1259       0.25      1.008
  4970         HL    382   POPC   H14C   1259       0.25      1.008
  4971       CTL5    382   POPC    C15   1259      -0.35     12.011
  4972         HL    382   POPC   H15A   1259       0.25      1.008
  4973         HL    382   POPC   H15B   1259       0.25      1.008
  4974         HL    382   POPC   H15C   1259       0.25      1.008
  4975       CTL2    382   POPC    C11   1260      -0.08     12.011
  4976       HAL2    382   POPC   H11A   1260       0.09      1.008
  4977       HAL2    382   POPC   H11B   1260       0.09      1.008
  4978         PL    382   POPC      P   1260        1.5     30.974
  4979        O2L    382   POPC    O13   1260      -0.78    15.9994
  4980        O2L    382   POPC    O14   1260      -0.78    15.9994
  4981       OSLP    382   POPC    O12   1260      -0.57    15.9994
  4982       OSLP    382   POPC    O11   1260      -0.57    15.9994
  4983       CTL2    382   POPC     C1   1260      -0.08     12.011
  4984       HAL2    382   POPC     HA   1260       0.09      1.008
  4985       HAL2    382   POPC     HB   1260       0.09      1.008
  4986       CTL1    382   POPC     C2   1261       0.17     12.011
  4987       HAL1    382   POPC     HS   1261       0.09      1.008
  4988        OSL    382   POPC    O21   1261      -0.49    15.9994
  4989         CL    382   POPC    C21   1261        0.9     12.011
  4990        OBL    382   POPC    O22   1261      -0.63    15.9994
  4991       CTL2    382   POPC    C22   1261      -0.22     12.011
  4992       HAL2    382   POPC    H2R   1261       0.09      1.008
  4993       HAL2    382   POPC    H2S   1261       0.09      1.008
  4994       CTL2    382   POPC     C3   1262       0.08     12.011
  4995       HAL2    382   POPC     HX   1262       0.09      1.008
  4996       HAL2    382   POPC     HY   1262       0.09      1.008
  4997        OSL    382   POPC    O31   1262      -0.49    15.9994
  4998         CL    382   POPC    C31   1262        0.9     12.011
  4999        OBL    382   POPC    O32   1262      -0.63    15.9994
  5000       CTL2    382   POPC    C32   1262      -0.22     12.011
  5001       HAL2    382   POPC    H2X   1262       0.09      1.008
  5002       HAL2    382   POPC    H2Y   1262       0.09      1.008
  5003       CTL2    382   POPC    C23   1263      -0.18     12.011
  5004       HAL2    382   POPC    H3R   1263       0.09      1.008
  5005       HAL2    382   POPC    H3S   1263       0.09      1.008
  5006       CTL2    382   POPC    C24   1264      -0.18     12.011
  5007       HAL2    382   POPC    H4R   1264       0.09      1.008
  5008       HAL2    382   POPC    H4S   1264       0.09      1.008
  5009       CTL2    382   POPC    C25   1265      -0.18     12.011
  5010       HAL2    382   POPC    H5R   1265       0.09      1.008
  5011       HAL2    382   POPC    H5S   1265       0.09      1.008
  5012       CTL2    382   POPC    C26   1266      -0.18     12.011
  5013       HAL2    382   POPC    H6R   1266       0.09      1.008
  5014       HAL2    382   POPC    H6S   1266       0.09      1.008
  5015       CTL2    382   POPC    C27   1267      -0.18     12.011
  5016       HAL2    382   POPC    H7R   1267       0.09      1.008
  5017       HAL2    382   POPC    H7S   1267       0.09      1.008
  5018       CTL2    382   POPC    C28   1268      -0.18     12.011
  5019       HAL2    382   POPC    H8R   1268       0.09      1.008
  5020       HAL2    382   POPC    H8S   1268       0.09      1.008
  5021       CEL1    382   POPC    C29   1269      -0.15     12.011
  5022       HEL1    382   POPC    H91   1269       0.15      1.008
  5023       CEL1    382   POPC   C210   1270      -0.15     12.011
  5024       HEL1    382   POPC   H101   1270       0.15      1.008
  5025       CTL2    382   POPC   C211   1271      -0.18     12.011
  5026       HAL2    382   POPC   H11R   1271       0.09      1.008
  5027       HAL2    382   POPC   H11S   1271       0.09      1.008
  5028       CTL2    382   POPC   C212   1272      -0.18     12.011
  5029       HAL2    382   POPC   H12R   1272       0.09      1.008
  5030       HAL2    382   POPC   H12S   1272       0.09      1.008
  5031       CTL2    382   POPC   C213   1273      -0.18     12.011
  5032       HAL2    382   POPC   H13R   1273       0.09      1.008
  5033       HAL2    382   POPC   H13S   1273       0.09      1.008
  5034       CTL2    382   POPC   C214   1274      -0.18     12.011
  5035       HAL2    382   POPC   H14R   1274       0.09      1.008
  5036       HAL2    382   POPC   H14S   1274       0.09      1.008
  5037       CTL2    382   POPC   C215   1275      -0.18     12.011
  5038       HAL2    382   POPC   H15R   1275       0.09      1.008
  5039       HAL2    382   POPC   H15S   1275       0.09      1.008
  5040       CTL2    382   POPC   C216   1276      -0.18     12.011
  5041       HAL2    382   POPC   H16R   1276       0.09      1.008
  5042       HAL2    382   POPC   H16S   1276       0.09      1.008
  5043       CTL2    382   POPC   C217   1277      -0.18     12.011
  5044       HAL2    382   POPC   H17R   1277       0.09      1.008
  5045       HAL2    382   POPC   H17S   1277       0.09      1.008
  5046       CTL3    382   POPC   C218   1278      -0.27     12.011
  5047       HAL3    382   POPC   H18R   1278       0.09      1.008
  5048       HAL3    382   POPC   H18S   1278       0.09      1.008
  5049       HAL3    382   POPC   H18T   1278       0.09      1.008
  5050       CTL2    382   POPC    C33   1279      -0.18     12.011
  5051       HAL2    382   POPC    H3X   1279       0.09      1.008
  5052       HAL2    382   POPC    H3Y   1279       0.09      1.008
  5053       CTL2    382   POPC    C34   1280      -0.18     12.011
  5054       HAL2    382   POPC    H4X   1280       0.09      1.008
  5055       HAL2    382   POPC    H4Y   1280       0.09      1.008
  5056       CTL2    382   POPC    C35   1281      -0.18     12.011
  5057       HAL2    382   POPC    H5X   1281       0.09      1.008
  5058       HAL2    382   POPC    H5Y   1281       0.09      1.008
  5059       CTL2    382   POPC    C36   1282      -0.18     12.011
  5060       HAL2    382   POPC    H6X   1282       0.09      1.008
  5061       HAL2    382   POPC    H6Y   1282       0.09      1.008
  5062       CTL2    382   POPC    C37   1283      -0.18     12.011
  5063       HAL2    382   POPC    H7X   1283       0.09      1.008
  5064       HAL2    382   POPC    H7Y   1283       0.09      1.008
  5065       CTL2    382   POPC    C38   1284      -0.18     12.011
  5066       HAL2    382   POPC    H8X   1284       0.09      1.008
  5067       HAL2    382   POPC    H8Y   1284       0.09      1.008
  5068       CTL2    382   POPC    C39   1285      -0.18     12.011
  5069       HAL2    382   POPC    H9X   1285       0.09      1.008
  5070       HAL2    382   POPC    H9Y   1285       0.09      1.008
  5071       CTL2    382   POPC   C310   1286      -0.18     12.011
  5072       HAL2    382   POPC   H10X   1286       0.09      1.008
  5073       HAL2    382   POPC   H10Y   1286       0.09      1.008
  5074       CTL2    382   POPC   C311   1287      -0.18     12.011
  5075       HAL2    382   POPC   H11X   1287       0.09      1.008
  5076       HAL2    382   POPC   H11Y   1287       0.09      1.008
  5077       CTL2    382   POPC   C312   1288      -0.18     12.011
  5078       HAL2    382   POPC   H12X   1288       0.09      1.008
  5079       HAL2    382   POPC   H12Y   1288       0.09      1.008
  5080       CTL2    382   POPC   C313   1289      -0.18     12.011
  5081       HAL2    382   POPC   H13X   1289       0.09      1.008
  5082       HAL2    382   POPC   H13Y   1289       0.09      1.008
  5083       CTL2    382   POPC   C314   1290      -0.18     12.011
  5084       HAL2    382   POPC   H14X   1290       0.09      1.008
  5085       HAL2    382   POPC   H14Y   1290       0.09      1.008
  5086       CTL2    382   POPC   C315   1291      -0.18     12.011
  5087       HAL2    382   POPC   H15X   1291       0.09      1.008
  5088       HAL2    382   POPC   H15Y   1291       0.09      1.008
  5089       CTL3    382   POPC   C316   1292      -0.27     12.011
  5090       HAL3    382   POPC   H16X   1292       0.09      1.008
  5091       HAL3    382   POPC   H16Y   1292       0.09      1.008
  5092       HAL3    382   POPC   H16Z   1292       0.09      1.008   ; qtot 0
; residue 383 POPC rtp POPC q  0.0
  5093        NTL    383   POPC      N   1293       -0.6     14.007
  5094       CTL2    383   POPC    C12   1293       -0.1     12.011
  5095         HL    383   POPC   H12A   1293       0.25      1.008
  5096         HL    383   POPC   H12B   1293       0.25      1.008
  5097       CTL5    383   POPC    C13   1293      -0.35     12.011
  5098         HL    383   POPC   H13A   1293       0.25      1.008
  5099         HL    383   POPC   H13B   1293       0.25      1.008
  5100         HL    383   POPC   H13C   1293       0.25      1.008
  5101       CTL5    383   POPC    C14   1293      -0.35     12.011
  5102         HL    383   POPC   H14A   1293       0.25      1.008
  5103         HL    383   POPC   H14B   1293       0.25      1.008
  5104         HL    383   POPC   H14C   1293       0.25      1.008
  5105       CTL5    383   POPC    C15   1293      -0.35     12.011
  5106         HL    383   POPC   H15A   1293       0.25      1.008
  5107         HL    383   POPC   H15B   1293       0.25      1.008
  5108         HL    383   POPC   H15C   1293       0.25      1.008
  5109       CTL2    383   POPC    C11   1294      -0.08     12.011
  5110       HAL2    383   POPC   H11A   1294       0.09      1.008
  5111       HAL2    383   POPC   H11B   1294       0.09      1.008
  5112         PL    383   POPC      P   1294        1.5     30.974
  5113        O2L    383   POPC    O13   1294      -0.78    15.9994
  5114        O2L    383   POPC    O14   1294      -0.78    15.9994
  5115       OSLP    383   POPC    O12   1294      -0.57    15.9994
  5116       OSLP    383   POPC    O11   1294      -0.57    15.9994
  5117       CTL2    383   POPC     C1   1294      -0.08     12.011
  5118       HAL2    383   POPC     HA   1294       0.09      1.008
  5119       HAL2    383   POPC     HB   1294       0.09      1.008
  5120       CTL1    383   POPC     C2   1295       0.17     12.011
  5121       HAL1    383   POPC     HS   1295       0.09      1.008
  5122        OSL    383   POPC    O21   1295      -0.49    15.9994
  5123         CL    383   POPC    C21   1295        0.9     12.011
  5124        OBL    383   POPC    O22   1295      -0.63    15.9994
  5125       CTL2    383   POPC    C22   1295      -0.22     12.011
  5126       HAL2    383   POPC    H2R   1295       0.09      1.008
  5127       HAL2    383   POPC    H2S   1295       0.09      1.008
  5128       CTL2    383   POPC     C3   1296       0.08     12.011
  5129       HAL2    383   POPC     HX   1296       0.09      1.008
  5130       HAL2    383   POPC     HY   1296       0.09      1.008
  5131        OSL    383   POPC    O31   1296      -0.49    15.9994
  5132         CL    383   POPC    C31   1296        0.9     12.011
  5133        OBL    383   POPC    O32   1296      -0.63    15.9994
  5134       CTL2    383   POPC    C32   1296      -0.22     12.011
  5135       HAL2    383   POPC    H2X   1296       0.09      1.008
  5136       HAL2    383   POPC    H2Y   1296       0.09      1.008
  5137       CTL2    383   POPC    C23   1297      -0.18     12.011
  5138       HAL2    383   POPC    H3R   1297       0.09      1.008
  5139       HAL2    383   POPC    H3S   1297       0.09      1.008
  5140       CTL2    383   POPC    C24   1298      -0.18     12.011
  5141       HAL2    383   POPC    H4R   1298       0.09      1.008
  5142       HAL2    383   POPC    H4S   1298       0.09      1.008
  5143       CTL2    383   POPC    C25   1299      -0.18     12.011
  5144       HAL2    383   POPC    H5R   1299       0.09      1.008
  5145       HAL2    383   POPC    H5S   1299       0.09      1.008
  5146       CTL2    383   POPC    C26   1300      -0.18     12.011
  5147       HAL2    383   POPC    H6R   1300       0.09      1.008
  5148       HAL2    383   POPC    H6S   1300       0.09      1.008
  5149       CTL2    383   POPC    C27   1301      -0.18     12.011
  5150       HAL2    383   POPC    H7R   1301       0.09      1.008
  5151       HAL2    383   POPC    H7S   1301       0.09      1.008
  5152       CTL2    383   POPC    C28   1302      -0.18     12.011
  5153       HAL2    383   POPC    H8R   1302       0.09      1.008
  5154       HAL2    383   POPC    H8S   1302       0.09      1.008
  5155       CEL1    383   POPC    C29   1303      -0.15     12.011
  5156       HEL1    383   POPC    H91   1303       0.15      1.008
  5157       CEL1    383   POPC   C210   1304      -0.15     12.011
  5158       HEL1    383   POPC   H101   1304       0.15      1.008
  5159       CTL2    383   POPC   C211   1305      -0.18     12.011
  5160       HAL2    383   POPC   H11R   1305       0.09      1.008
  5161       HAL2    383   POPC   H11S   1305       0.09      1.008
  5162       CTL2    383   POPC   C212   1306      -0.18     12.011
  5163       HAL2    383   POPC   H12R   1306       0.09      1.008
  5164       HAL2    383   POPC   H12S   1306       0.09      1.008
  5165       CTL2    383   POPC   C213   1307      -0.18     12.011
  5166       HAL2    383   POPC   H13R   1307       0.09      1.008
  5167       HAL2    383   POPC   H13S   1307       0.09      1.008
  5168       CTL2    383   POPC   C214   1308      -0.18     12.011
  5169       HAL2    383   POPC   H14R   1308       0.09      1.008
  5170       HAL2    383   POPC   H14S   1308       0.09      1.008
  5171       CTL2    383   POPC   C215   1309      -0.18     12.011
  5172       HAL2    383   POPC   H15R   1309       0.09      1.008
  5173       HAL2    383   POPC   H15S   1309       0.09      1.008
  5174       CTL2    383   POPC   C216   1310      -0.18     12.011
  5175       HAL2    383   POPC   H16R   1310       0.09      1.008
  5176       HAL2    383   POPC   H16S   1310       0.09      1.008
  5177       CTL2    383   POPC   C217   1311      -0.18     12.011
  5178       HAL2    383   POPC   H17R   1311       0.09      1.008
  5179       HAL2    383   POPC   H17S   1311       0.09      1.008
  5180       CTL3    383   POPC   C218   1312      -0.27     12.011
  5181       HAL3    383   POPC   H18R   1312       0.09      1.008
  5182       HAL3    383   POPC   H18S   1312       0.09      1.008
  5183       HAL3    383   POPC   H18T   1312       0.09      1.008
  5184       CTL2    383   POPC    C33   1313      -0.18     12.011
  5185       HAL2    383   POPC    H3X   1313       0.09      1.008
  5186       HAL2    383   POPC    H3Y   1313       0.09      1.008
  5187       CTL2    383   POPC    C34   1314      -0.18     12.011
  5188       HAL2    383   POPC    H4X   1314       0.09      1.008
  5189       HAL2    383   POPC    H4Y   1314       0.09      1.008
  5190       CTL2    383   POPC    C35   1315      -0.18     12.011
  5191       HAL2    383   POPC    H5X   1315       0.09      1.008
  5192       HAL2    383   POPC    H5Y   1315       0.09      1.008
  5193       CTL2    383   POPC    C36   1316      -0.18     12.011
  5194       HAL2    383   POPC    H6X   1316       0.09      1.008
  5195       HAL2    383   POPC    H6Y   1316       0.09      1.008
  5196       CTL2    383   POPC    C37   1317      -0.18     12.011
  5197       HAL2    383   POPC    H7X   1317       0.09      1.008
  5198       HAL2    383   POPC    H7Y   1317       0.09      1.008
  5199       CTL2    383   POPC    C38   1318      -0.18     12.011
  5200       HAL2    383   POPC    H8X   1318       0.09      1.008
  5201       HAL2    383   POPC    H8Y   1318       0.09      1.008
  5202       CTL2    383   POPC    C39   1319      -0.18     12.011
  5203       HAL2    383   POPC    H9X   1319       0.09      1.008
  5204       HAL2    383   POPC    H9Y   1319       0.09      1.008
  5205       CTL2    383   POPC   C310   1320      -0.18     12.011
  5206       HAL2    383   POPC   H10X   1320       0.09      1.008
  5207       HAL2    383   POPC   H10Y   1320       0.09      1.008
  5208       CTL2    383   POPC   C311   1321      -0.18     12.011
  5209       HAL2    383   POPC   H11X   1321       0.09      1.008
  5210       HAL2    383   POPC   H11Y   1321       0.09      1.008
  5211       CTL2    383   POPC   C312   1322      -0.18     12.011
  5212       HAL2    383   POPC   H12X   1322       0.09      1.008
  5213       HAL2    383   POPC   H12Y   1322       0.09      1.008
  5214       CTL2    383   POPC   C313   1323      -0.18     12.011
  5215       HAL2    383   POPC   H13X   1323       0.09      1.008
  5216       HAL2    383   POPC   H13Y   1323       0.09      1.008
  5217       CTL2    383   POPC   C314   1324      -0.18     12.011
  5218       HAL2    383   POPC   H14X   1324       0.09      1.008
  5219       HAL2    383   POPC   H14Y   1324       0.09      1.008
  5220       CTL2    383   POPC   C315   1325      -0.18     12.011
  5221       HAL2    383   POPC   H15X   1325       0.09      1.008
  5222       HAL2    383   POPC   H15Y   1325       0.09      1.008
  5223       CTL3    383   POPC   C316   1326      -0.27     12.011
  5224       HAL3    383   POPC   H16X   1326       0.09      1.008
  5225       HAL3    383   POPC   H16Y   1326       0.09      1.008
  5226       HAL3    383   POPC   H16Z   1326       0.09      1.008   ; qtot 0
; residue 384 POPC rtp POPC q  0.0
  5227        NTL    384   POPC      N   1327       -0.6     14.007
  5228       CTL2    384   POPC    C12   1327       -0.1     12.011
  5229         HL    384   POPC   H12A   1327       0.25      1.008
  5230         HL    384   POPC   H12B   1327       0.25      1.008
  5231       CTL5    384   POPC    C13   1327      -0.35     12.011
  5232         HL    384   POPC   H13A   1327       0.25      1.008
  5233         HL    384   POPC   H13B   1327       0.25      1.008
  5234         HL    384   POPC   H13C   1327       0.25      1.008
  5235       CTL5    384   POPC    C14   1327      -0.35     12.011
  5236         HL    384   POPC   H14A   1327       0.25      1.008
  5237         HL    384   POPC   H14B   1327       0.25      1.008
  5238         HL    384   POPC   H14C   1327       0.25      1.008
  5239       CTL5    384   POPC    C15   1327      -0.35     12.011
  5240         HL    384   POPC   H15A   1327       0.25      1.008
  5241         HL    384   POPC   H15B   1327       0.25      1.008
  5242         HL    384   POPC   H15C   1327       0.25      1.008
  5243       CTL2    384   POPC    C11   1328      -0.08     12.011
  5244       HAL2    384   POPC   H11A   1328       0.09      1.008
  5245       HAL2    384   POPC   H11B   1328       0.09      1.008
  5246         PL    384   POPC      P   1328        1.5     30.974
  5247        O2L    384   POPC    O13   1328      -0.78    15.9994
  5248        O2L    384   POPC    O14   1328      -0.78    15.9994
  5249       OSLP    384   POPC    O12   1328      -0.57    15.9994
  5250       OSLP    384   POPC    O11   1328      -0.57    15.9994
  5251       CTL2    384   POPC     C1   1328      -0.08     12.011
  5252       HAL2    384   POPC     HA   1328       0.09      1.008
  5253       HAL2    384   POPC     HB   1328       0.09      1.008
  5254       CTL1    384   POPC     C2   1329       0.17     12.011
  5255       HAL1    384   POPC     HS   1329       0.09      1.008
  5256        OSL    384   POPC    O21   1329      -0.49    15.9994
  5257         CL    384   POPC    C21   1329        0.9     12.011
  5258        OBL    384   POPC    O22   1329      -0.63    15.9994
  5259       CTL2    384   POPC    C22   1329      -0.22     12.011
  5260       HAL2    384   POPC    H2R   1329       0.09      1.008
  5261       HAL2    384   POPC    H2S   1329       0.09      1.008
  5262       CTL2    384   POPC     C3   1330       0.08     12.011
  5263       HAL2    384   POPC     HX   1330       0.09      1.008
  5264       HAL2    384   POPC     HY   1330       0.09      1.008
  5265        OSL    384   POPC    O31   1330      -0.49    15.9994
  5266         CL    384   POPC    C31   1330        0.9     12.011
  5267        OBL    384   POPC    O32   1330      -0.63    15.9994
  5268       CTL2    384   POPC    C32   1330      -0.22     12.011
  5269       HAL2    384   POPC    H2X   1330       0.09      1.008
  5270       HAL2    384   POPC    H2Y   1330       0.09      1.008
  5271       CTL2    384   POPC    C23   1331      -0.18     12.011
  5272       HAL2    384   POPC    H3R   1331       0.09      1.008
  5273       HAL2    384   POPC    H3S   1331       0.09      1.008
  5274       CTL2    384   POPC    C24   1332      -0.18     12.011
  5275       HAL2    384   POPC    H4R   1332       0.09      1.008
  5276       HAL2    384   POPC    H4S   1332       0.09      1.008
  5277       CTL2    384   POPC    C25   1333      -0.18     12.011
  5278       HAL2    384   POPC    H5R   1333       0.09      1.008
  5279       HAL2    384   POPC    H5S   1333       0.09      1.008
  5280       CTL2    384   POPC    C26   1334      -0.18     12.011
  5281       HAL2    384   POPC    H6R   1334       0.09      1.008
  5282       HAL2    384   POPC    H6S   1334       0.09      1.008
  5283       CTL2    384   POPC    C27   1335      -0.18     12.011
  5284       HAL2    384   POPC    H7R   1335       0.09      1.008
  5285       HAL2    384   POPC    H7S   1335       0.09      1.008
  5286       CTL2    384   POPC    C28   1336      -0.18     12.011
  5287       HAL2    384   POPC    H8R   1336       0.09      1.008
  5288       HAL2    384   POPC    H8S   1336       0.09      1.008
  5289       CEL1    384   POPC    C29   1337      -0.15     12.011
  5290       HEL1    384   POPC    H91   1337       0.15      1.008
  5291       CEL1    384   POPC   C210   1338      -0.15     12.011
  5292       HEL1    384   POPC   H101   1338       0.15      1.008
  5293       CTL2    384   POPC   C211   1339      -0.18     12.011
  5294       HAL2    384   POPC   H11R   1339       0.09      1.008
  5295       HAL2    384   POPC   H11S   1339       0.09      1.008
  5296       CTL2    384   POPC   C212   1340      -0.18     12.011
  5297       HAL2    384   POPC   H12R   1340       0.09      1.008
  5298       HAL2    384   POPC   H12S   1340       0.09      1.008
  5299       CTL2    384   POPC   C213   1341      -0.18     12.011
  5300       HAL2    384   POPC   H13R   1341       0.09      1.008
  5301       HAL2    384   POPC   H13S   1341       0.09      1.008
  5302       CTL2    384   POPC   C214   1342      -0.18     12.011
  5303       HAL2    384   POPC   H14R   1342       0.09      1.008
  5304       HAL2    384   POPC   H14S   1342       0.09      1.008
  5305       CTL2    384   POPC   C215   1343      -0.18     12.011
  5306       HAL2    384   POPC   H15R   1343       0.09      1.008
  5307       HAL2    384   POPC   H15S   1343       0.09      1.008
  5308       CTL2    384   POPC   C216   1344      -0.18     12.011
  5309       HAL2    384   POPC   H16R   1344       0.09      1.008
  5310       HAL2    384   POPC   H16S   1344       0.09      1.008
  5311       CTL2    384   POPC   C217   1345      -0.18     12.011
  5312       HAL2    384   POPC   H17R   1345       0.09      1.008
  5313       HAL2    384   POPC   H17S   1345       0.09      1.008
  5314       CTL3    384   POPC   C218   1346      -0.27     12.011
  5315       HAL3    384   POPC   H18R   1346       0.09      1.008
  5316       HAL3    384   POPC   H18S   1346       0.09      1.008
  5317       HAL3    384   POPC   H18T   1346       0.09      1.008
  5318       CTL2    384   POPC    C33   1347      -0.18     12.011
  5319       HAL2    384   POPC    H3X   1347       0.09      1.008
  5320       HAL2    384   POPC    H3Y   1347       0.09      1.008
  5321       CTL2    384   POPC    C34   1348      -0.18     12.011
  5322       HAL2    384   POPC    H4X   1348       0.09      1.008
  5323       HAL2    384   POPC    H4Y   1348       0.09      1.008
  5324       CTL2    384   POPC    C35   1349      -0.18     12.011
  5325       HAL2    384   POPC    H5X   1349       0.09      1.008
  5326       HAL2    384   POPC    H5Y   1349       0.09      1.008
  5327       CTL2    384   POPC    C36   1350      -0.18     12.011
  5328       HAL2    384   POPC    H6X   1350       0.09      1.008
  5329       HAL2    384   POPC    H6Y   1350       0.09      1.008
  5330       CTL2    384   POPC    C37   1351      -0.18     12.011
  5331       HAL2    384   POPC    H7X   1351       0.09      1.008
  5332       HAL2    384   POPC    H7Y   1351       0.09      1.008
  5333       CTL2    384   POPC    C38   1352      -0.18     12.011
  5334       HAL2    384   POPC    H8X   1352       0.09      1.008
  5335       HAL2    384   POPC    H8Y   1352       0.09      1.008
  5336       CTL2    384   POPC    C39   1353      -0.18     12.011
  5337       HAL2    384   POPC    H9X   1353       0.09      1.008
  5338       HAL2    384   POPC    H9Y   1353       0.09      1.008
  5339       CTL2    384   POPC   C310   1354      -0.18     12.011
  5340       HAL2    384   POPC   H10X   1354       0.09      1.008
  5341       HAL2    384   POPC   H10Y   1354       0.09      1.008
  5342       CTL2    384   POPC   C311   1355      -0.18     12.011
  5343       HAL2    384   POPC   H11X   1355       0.09      1.008
  5344       HAL2    384   POPC   H11Y   1355       0.09      1.008
  5345       CTL2    384   POPC   C312   1356      -0.18     12.011
  5346       HAL2    384   POPC   H12X   1356       0.09      1.008
  5347       HAL2    384   POPC   H12Y   1356       0.09      1.008
  5348       CTL2    384   POPC   C313   1357      -0.18     12.011
  5349       HAL2    384   POPC   H13X   1357       0.09      1.008
  5350       HAL2    384   POPC   H13Y   1357       0.09      1.008
  5351       CTL2    384   POPC   C314   1358      -0.18     12.011
  5352       HAL2    384   POPC   H14X   1358       0.09      1.008
  5353       HAL2    384   POPC   H14Y   1358       0.09      1.008
  5354       CTL2    384   POPC   C315   1359      -0.18     12.011
  5355       HAL2    384   POPC   H15X   1359       0.09      1.008
  5356       HAL2    384   POPC   H15Y   1359       0.09      1.008
  5357       CTL3    384   POPC   C316   1360      -0.27     12.011
  5358       HAL3    384   POPC   H16X   1360       0.09      1.008
  5359       HAL3    384   POPC   H16Y   1360       0.09      1.008
  5360       HAL3    384   POPC   H16Z   1360       0.09      1.008   ; qtot 0
; residue 385 POPC rtp POPC q  0.0
  5361        NTL    385   POPC      N   1361       -0.6     14.007
  5362       CTL2    385   POPC    C12   1361       -0.1     12.011
  5363         HL    385   POPC   H12A   1361       0.25      1.008
  5364         HL    385   POPC   H12B   1361       0.25      1.008
  5365       CTL5    385   POPC    C13   1361      -0.35     12.011
  5366         HL    385   POPC   H13A   1361       0.25      1.008
  5367         HL    385   POPC   H13B   1361       0.25      1.008
  5368         HL    385   POPC   H13C   1361       0.25      1.008
  5369       CTL5    385   POPC    C14   1361      -0.35     12.011
  5370         HL    385   POPC   H14A   1361       0.25      1.008
  5371         HL    385   POPC   H14B   1361       0.25      1.008
  5372         HL    385   POPC   H14C   1361       0.25      1.008
  5373       CTL5    385   POPC    C15   1361      -0.35     12.011
  5374         HL    385   POPC   H15A   1361       0.25      1.008
  5375         HL    385   POPC   H15B   1361       0.25      1.008
  5376         HL    385   POPC   H15C   1361       0.25      1.008
  5377       CTL2    385   POPC    C11   1362      -0.08     12.011
  5378       HAL2    385   POPC   H11A   1362       0.09      1.008
  5379       HAL2    385   POPC   H11B   1362       0.09      1.008
  5380         PL    385   POPC      P   1362        1.5     30.974
  5381        O2L    385   POPC    O13   1362      -0.78    15.9994
  5382        O2L    385   POPC    O14   1362      -0.78    15.9994
  5383       OSLP    385   POPC    O12   1362      -0.57    15.9994
  5384       OSLP    385   POPC    O11   1362      -0.57    15.9994
  5385       CTL2    385   POPC     C1   1362      -0.08     12.011
  5386       HAL2    385   POPC     HA   1362       0.09      1.008
  5387       HAL2    385   POPC     HB   1362       0.09      1.008
  5388       CTL1    385   POPC     C2   1363       0.17     12.011
  5389       HAL1    385   POPC     HS   1363       0.09      1.008
  5390        OSL    385   POPC    O21   1363      -0.49    15.9994
  5391         CL    385   POPC    C21   1363        0.9     12.011
  5392        OBL    385   POPC    O22   1363      -0.63    15.9994
  5393       CTL2    385   POPC    C22   1363      -0.22     12.011
  5394       HAL2    385   POPC    H2R   1363       0.09      1.008
  5395       HAL2    385   POPC    H2S   1363       0.09      1.008
  5396       CTL2    385   POPC     C3   1364       0.08     12.011
  5397       HAL2    385   POPC     HX   1364       0.09      1.008
  5398       HAL2    385   POPC     HY   1364       0.09      1.008
  5399        OSL    385   POPC    O31   1364      -0.49    15.9994
  5400         CL    385   POPC    C31   1364        0.9     12.011
  5401        OBL    385   POPC    O32   1364      -0.63    15.9994
  5402       CTL2    385   POPC    C32   1364      -0.22     12.011
  5403       HAL2    385   POPC    H2X   1364       0.09      1.008
  5404       HAL2    385   POPC    H2Y   1364       0.09      1.008
  5405       CTL2    385   POPC    C23   1365      -0.18     12.011
  5406       HAL2    385   POPC    H3R   1365       0.09      1.008
  5407       HAL2    385   POPC    H3S   1365       0.09      1.008
  5408       CTL2    385   POPC    C24   1366      -0.18     12.011
  5409       HAL2    385   POPC    H4R   1366       0.09      1.008
  5410       HAL2    385   POPC    H4S   1366       0.09      1.008
  5411       CTL2    385   POPC    C25   1367      -0.18     12.011
  5412       HAL2    385   POPC    H5R   1367       0.09      1.008
  5413       HAL2    385   POPC    H5S   1367       0.09      1.008
  5414       CTL2    385   POPC    C26   1368      -0.18     12.011
  5415       HAL2    385   POPC    H6R   1368       0.09      1.008
  5416       HAL2    385   POPC    H6S   1368       0.09      1.008
  5417       CTL2    385   POPC    C27   1369      -0.18     12.011
  5418       HAL2    385   POPC    H7R   1369       0.09      1.008
  5419       HAL2    385   POPC    H7S   1369       0.09      1.008
  5420       CTL2    385   POPC    C28   1370      -0.18     12.011
  5421       HAL2    385   POPC    H8R   1370       0.09      1.008
  5422       HAL2    385   POPC    H8S   1370       0.09      1.008
  5423       CEL1    385   POPC    C29   1371      -0.15     12.011
  5424       HEL1    385   POPC    H91   1371       0.15      1.008
  5425       CEL1    385   POPC   C210   1372      -0.15     12.011
  5426       HEL1    385   POPC   H101   1372       0.15      1.008
  5427       CTL2    385   POPC   C211   1373      -0.18     12.011
  5428       HAL2    385   POPC   H11R   1373       0.09      1.008
  5429       HAL2    385   POPC   H11S   1373       0.09      1.008
  5430       CTL2    385   POPC   C212   1374      -0.18     12.011
  5431       HAL2    385   POPC   H12R   1374       0.09      1.008
  5432       HAL2    385   POPC   H12S   1374       0.09      1.008
  5433       CTL2    385   POPC   C213   1375      -0.18     12.011
  5434       HAL2    385   POPC   H13R   1375       0.09      1.008
  5435       HAL2    385   POPC   H13S   1375       0.09      1.008
  5436       CTL2    385   POPC   C214   1376      -0.18     12.011
  5437       HAL2    385   POPC   H14R   1376       0.09      1.008
  5438       HAL2    385   POPC   H14S   1376       0.09      1.008
  5439       CTL2    385   POPC   C215   1377      -0.18     12.011
  5440       HAL2    385   POPC   H15R   1377       0.09      1.008
  5441       HAL2    385   POPC   H15S   1377       0.09      1.008
  5442       CTL2    385   POPC   C216   1378      -0.18     12.011
  5443       HAL2    385   POPC   H16R   1378       0.09      1.008
  5444       HAL2    385   POPC   H16S   1378       0.09      1.008
  5445       CTL2    385   POPC   C217   1379      -0.18     12.011
  5446       HAL2    385   POPC   H17R   1379       0.09      1.008
  5447       HAL2    385   POPC   H17S   1379       0.09      1.008
  5448       CTL3    385   POPC   C218   1380      -0.27     12.011
  5449       HAL3    385   POPC   H18R   1380       0.09      1.008
  5450       HAL3    385   POPC   H18S   1380       0.09      1.008
  5451       HAL3    385   POPC   H18T   1380       0.09      1.008
  5452       CTL2    385   POPC    C33   1381      -0.18     12.011
  5453       HAL2    385   POPC    H3X   1381       0.09      1.008
  5454       HAL2    385   POPC    H3Y   1381       0.09      1.008
  5455       CTL2    385   POPC    C34   1382      -0.18     12.011
  5456       HAL2    385   POPC    H4X   1382       0.09      1.008
  5457       HAL2    385   POPC    H4Y   1382       0.09      1.008
  5458       CTL2    385   POPC    C35   1383      -0.18     12.011
  5459       HAL2    385   POPC    H5X   1383       0.09      1.008
  5460       HAL2    385   POPC    H5Y   1383       0.09      1.008
  5461       CTL2    385   POPC    C36   1384      -0.18     12.011
  5462       HAL2    385   POPC    H6X   1384       0.09      1.008
  5463       HAL2    385   POPC    H6Y   1384       0.09      1.008
  5464       CTL2    385   POPC    C37   1385      -0.18     12.011
  5465       HAL2    385   POPC    H7X   1385       0.09      1.008
  5466       HAL2    385   POPC    H7Y   1385       0.09      1.008
  5467       CTL2    385   POPC    C38   1386      -0.18     12.011
  5468       HAL2    385   POPC    H8X   1386       0.09      1.008
  5469       HAL2    385   POPC    H8Y   1386       0.09      1.008
  5470       CTL2    385   POPC    C39   1387      -0.18     12.011
  5471       HAL2    385   POPC    H9X   1387       0.09      1.008
  5472       HAL2    385   POPC    H9Y   1387       0.09      1.008
  5473       CTL2    385   POPC   C310   1388      -0.18     12.011
  5474       HAL2    385   POPC   H10X   1388       0.09      1.008
  5475       HAL2    385   POPC   H10Y   1388       0.09      1.008
  5476       CTL2    385   POPC   C311   1389      -0.18     12.011
  5477       HAL2    385   POPC   H11X   1389       0.09      1.008
  5478       HAL2    385   POPC   H11Y   1389       0.09      1.008
  5479       CTL2    385   POPC   C312   1390      -0.18     12.011
  5480       HAL2    385   POPC   H12X   1390       0.09      1.008
  5481       HAL2    385   POPC   H12Y   1390       0.09      1.008
  5482       CTL2    385   POPC   C313   1391      -0.18     12.011
  5483       HAL2    385   POPC   H13X   1391       0.09      1.008
  5484       HAL2    385   POPC   H13Y   1391       0.09      1.008
  5485       CTL2    385   POPC   C314   1392      -0.18     12.011
  5486       HAL2    385   POPC   H14X   1392       0.09      1.008
  5487       HAL2    385   POPC   H14Y   1392       0.09      1.008
  5488       CTL2    385   POPC   C315   1393      -0.18     12.011
  5489       HAL2    385   POPC   H15X   1393       0.09      1.008
  5490       HAL2    385   POPC   H15Y   1393       0.09      1.008
  5491       CTL3    385   POPC   C316   1394      -0.27     12.011
  5492       HAL3    385   POPC   H16X   1394       0.09      1.008
  5493       HAL3    385   POPC   H16Y   1394       0.09      1.008
  5494       HAL3    385   POPC   H16Z   1394       0.09      1.008   ; qtot 0
; residue 386 POPC rtp POPC q  0.0
  5495        NTL    386   POPC      N   1395       -0.6     14.007
  5496       CTL2    386   POPC    C12   1395       -0.1     12.011
  5497         HL    386   POPC   H12A   1395       0.25      1.008
  5498         HL    386   POPC   H12B   1395       0.25      1.008
  5499       CTL5    386   POPC    C13   1395      -0.35     12.011
  5500         HL    386   POPC   H13A   1395       0.25      1.008
  5501         HL    386   POPC   H13B   1395       0.25      1.008
  5502         HL    386   POPC   H13C   1395       0.25      1.008
  5503       CTL5    386   POPC    C14   1395      -0.35     12.011
  5504         HL    386   POPC   H14A   1395       0.25      1.008
  5505         HL    386   POPC   H14B   1395       0.25      1.008
  5506         HL    386   POPC   H14C   1395       0.25      1.008
  5507       CTL5    386   POPC    C15   1395      -0.35     12.011
  5508         HL    386   POPC   H15A   1395       0.25      1.008
  5509         HL    386   POPC   H15B   1395       0.25      1.008
  5510         HL    386   POPC   H15C   1395       0.25      1.008
  5511       CTL2    386   POPC    C11   1396      -0.08     12.011
  5512       HAL2    386   POPC   H11A   1396       0.09      1.008
  5513       HAL2    386   POPC   H11B   1396       0.09      1.008
  5514         PL    386   POPC      P   1396        1.5     30.974
  5515        O2L    386   POPC    O13   1396      -0.78    15.9994
  5516        O2L    386   POPC    O14   1396      -0.78    15.9994
  5517       OSLP    386   POPC    O12   1396      -0.57    15.9994
  5518       OSLP    386   POPC    O11   1396      -0.57    15.9994
  5519       CTL2    386   POPC     C1   1396      -0.08     12.011
  5520       HAL2    386   POPC     HA   1396       0.09      1.008
  5521       HAL2    386   POPC     HB   1396       0.09      1.008
  5522       CTL1    386   POPC     C2   1397       0.17     12.011
  5523       HAL1    386   POPC     HS   1397       0.09      1.008
  5524        OSL    386   POPC    O21   1397      -0.49    15.9994
  5525         CL    386   POPC    C21   1397        0.9     12.011
  5526        OBL    386   POPC    O22   1397      -0.63    15.9994
  5527       CTL2    386   POPC    C22   1397      -0.22     12.011
  5528       HAL2    386   POPC    H2R   1397       0.09      1.008
  5529       HAL2    386   POPC    H2S   1397       0.09      1.008
  5530       CTL2    386   POPC     C3   1398       0.08     12.011
  5531       HAL2    386   POPC     HX   1398       0.09      1.008
  5532       HAL2    386   POPC     HY   1398       0.09      1.008
  5533        OSL    386   POPC    O31   1398      -0.49    15.9994
  5534         CL    386   POPC    C31   1398        0.9     12.011
  5535        OBL    386   POPC    O32   1398      -0.63    15.9994
  5536       CTL2    386   POPC    C32   1398      -0.22     12.011
  5537       HAL2    386   POPC    H2X   1398       0.09      1.008
  5538       HAL2    386   POPC    H2Y   1398       0.09      1.008
  5539       CTL2    386   POPC    C23   1399      -0.18     12.011
  5540       HAL2    386   POPC    H3R   1399       0.09      1.008
  5541       HAL2    386   POPC    H3S   1399       0.09      1.008
  5542       CTL2    386   POPC    C24   1400      -0.18     12.011
  5543       HAL2    386   POPC    H4R   1400       0.09      1.008
  5544       HAL2    386   POPC    H4S   1400       0.09      1.008
  5545       CTL2    386   POPC    C25   1401      -0.18     12.011
  5546       HAL2    386   POPC    H5R   1401       0.09      1.008
  5547       HAL2    386   POPC    H5S   1401       0.09      1.008
  5548       CTL2    386   POPC    C26   1402      -0.18     12.011
  5549       HAL2    386   POPC    H6R   1402       0.09      1.008
  5550       HAL2    386   POPC    H6S   1402       0.09      1.008
  5551       CTL2    386   POPC    C27   1403      -0.18     12.011
  5552       HAL2    386   POPC    H7R   1403       0.09      1.008
  5553       HAL2    386   POPC    H7S   1403       0.09      1.008
  5554       CTL2    386   POPC    C28   1404      -0.18     12.011
  5555       HAL2    386   POPC    H8R   1404       0.09      1.008
  5556       HAL2    386   POPC    H8S   1404       0.09      1.008
  5557       CEL1    386   POPC    C29   1405      -0.15     12.011
  5558       HEL1    386   POPC    H91   1405       0.15      1.008
  5559       CEL1    386   POPC   C210   1406      -0.15     12.011
  5560       HEL1    386   POPC   H101   1406       0.15      1.008
  5561       CTL2    386   POPC   C211   1407      -0.18     12.011
  5562       HAL2    386   POPC   H11R   1407       0.09      1.008
  5563       HAL2    386   POPC   H11S   1407       0.09      1.008
  5564       CTL2    386   POPC   C212   1408      -0.18     12.011
  5565       HAL2    386   POPC   H12R   1408       0.09      1.008
  5566       HAL2    386   POPC   H12S   1408       0.09      1.008
  5567       CTL2    386   POPC   C213   1409      -0.18     12.011
  5568       HAL2    386   POPC   H13R   1409       0.09      1.008
  5569       HAL2    386   POPC   H13S   1409       0.09      1.008
  5570       CTL2    386   POPC   C214   1410      -0.18     12.011
  5571       HAL2    386   POPC   H14R   1410       0.09      1.008
  5572       HAL2    386   POPC   H14S   1410       0.09      1.008
  5573       CTL2    386   POPC   C215   1411      -0.18     12.011
  5574       HAL2    386   POPC   H15R   1411       0.09      1.008
  5575       HAL2    386   POPC   H15S   1411       0.09      1.008
  5576       CTL2    386   POPC   C216   1412      -0.18     12.011
  5577       HAL2    386   POPC   H16R   1412       0.09      1.008
  5578       HAL2    386   POPC   H16S   1412       0.09      1.008
  5579       CTL2    386   POPC   C217   1413      -0.18     12.011
  5580       HAL2    386   POPC   H17R   1413       0.09      1.008
  5581       HAL2    386   POPC   H17S   1413       0.09      1.008
  5582       CTL3    386   POPC   C218   1414      -0.27     12.011
  5583       HAL3    386   POPC   H18R   1414       0.09      1.008
  5584       HAL3    386   POPC   H18S   1414       0.09      1.008
  5585       HAL3    386   POPC   H18T   1414       0.09      1.008
  5586       CTL2    386   POPC    C33   1415      -0.18     12.011
  5587       HAL2    386   POPC    H3X   1415       0.09      1.008
  5588       HAL2    386   POPC    H3Y   1415       0.09      1.008
  5589       CTL2    386   POPC    C34   1416      -0.18     12.011
  5590       HAL2    386   POPC    H4X   1416       0.09      1.008
  5591       HAL2    386   POPC    H4Y   1416       0.09      1.008
  5592       CTL2    386   POPC    C35   1417      -0.18     12.011
  5593       HAL2    386   POPC    H5X   1417       0.09      1.008
  5594       HAL2    386   POPC    H5Y   1417       0.09      1.008
  5595       CTL2    386   POPC    C36   1418      -0.18     12.011
  5596       HAL2    386   POPC    H6X   1418       0.09      1.008
  5597       HAL2    386   POPC    H6Y   1418       0.09      1.008
  5598       CTL2    386   POPC    C37   1419      -0.18     12.011
  5599       HAL2    386   POPC    H7X   1419       0.09      1.008
  5600       HAL2    386   POPC    H7Y   1419       0.09      1.008
  5601       CTL2    386   POPC    C38   1420      -0.18     12.011
  5602       HAL2    386   POPC    H8X   1420       0.09      1.008
  5603       HAL2    386   POPC    H8Y   1420       0.09      1.008
  5604       CTL2    386   POPC    C39   1421      -0.18     12.011
  5605       HAL2    386   POPC    H9X   1421       0.09      1.008
  5606       HAL2    386   POPC    H9Y   1421       0.09      1.008
  5607       CTL2    386   POPC   C310   1422      -0.18     12.011
  5608       HAL2    386   POPC   H10X   1422       0.09      1.008
  5609       HAL2    386   POPC   H10Y   1422       0.09      1.008
  5610       CTL2    386   POPC   C311   1423      -0.18     12.011
  5611       HAL2    386   POPC   H11X   1423       0.09      1.008
  5612       HAL2    386   POPC   H11Y   1423       0.09      1.008
  5613       CTL2    386   POPC   C312   1424      -0.18     12.011
  5614       HAL2    386   POPC   H12X   1424       0.09      1.008
  5615       HAL2    386   POPC   H12Y   1424       0.09      1.008
  5616       CTL2    386   POPC   C313   1425      -0.18     12.011
  5617       HAL2    386   POPC   H13X   1425       0.09      1.008
  5618       HAL2    386   POPC   H13Y   1425       0.09      1.008
  5619       CTL2    386   POPC   C314   1426      -0.18     12.011
  5620       HAL2    386   POPC   H14X   1426       0.09      1.008
  5621       HAL2    386   POPC   H14Y   1426       0.09      1.008
  5622       CTL2    386   POPC   C315   1427      -0.18     12.011
  5623       HAL2    386   POPC   H15X   1427       0.09      1.008
  5624       HAL2    386   POPC   H15Y   1427       0.09      1.008
  5625       CTL3    386   POPC   C316   1428      -0.27     12.011
  5626       HAL3    386   POPC   H16X   1428       0.09      1.008
  5627       HAL3    386   POPC   H16Y   1428       0.09      1.008
  5628       HAL3    386   POPC   H16Z   1428       0.09      1.008   ; qtot 0
; residue 387 POPC rtp POPC q  0.0
  5629        NTL    387   POPC      N   1429       -0.6     14.007
  5630       CTL2    387   POPC    C12   1429       -0.1     12.011
  5631         HL    387   POPC   H12A   1429       0.25      1.008
  5632         HL    387   POPC   H12B   1429       0.25      1.008
  5633       CTL5    387   POPC    C13   1429      -0.35     12.011
  5634         HL    387   POPC   H13A   1429       0.25      1.008
  5635         HL    387   POPC   H13B   1429       0.25      1.008
  5636         HL    387   POPC   H13C   1429       0.25      1.008
  5637       CTL5    387   POPC    C14   1429      -0.35     12.011
  5638         HL    387   POPC   H14A   1429       0.25      1.008
  5639         HL    387   POPC   H14B   1429       0.25      1.008
  5640         HL    387   POPC   H14C   1429       0.25      1.008
  5641       CTL5    387   POPC    C15   1429      -0.35     12.011
  5642         HL    387   POPC   H15A   1429       0.25      1.008
  5643         HL    387   POPC   H15B   1429       0.25      1.008
  5644         HL    387   POPC   H15C   1429       0.25      1.008
  5645       CTL2    387   POPC    C11   1430      -0.08     12.011
  5646       HAL2    387   POPC   H11A   1430       0.09      1.008
  5647       HAL2    387   POPC   H11B   1430       0.09      1.008
  5648         PL    387   POPC      P   1430        1.5     30.974
  5649        O2L    387   POPC    O13   1430      -0.78    15.9994
  5650        O2L    387   POPC    O14   1430      -0.78    15.9994
  5651       OSLP    387   POPC    O12   1430      -0.57    15.9994
  5652       OSLP    387   POPC    O11   1430      -0.57    15.9994
  5653       CTL2    387   POPC     C1   1430      -0.08     12.011
  5654       HAL2    387   POPC     HA   1430       0.09      1.008
  5655       HAL2    387   POPC     HB   1430       0.09      1.008
  5656       CTL1    387   POPC     C2   1431       0.17     12.011
  5657       HAL1    387   POPC     HS   1431       0.09      1.008
  5658        OSL    387   POPC    O21   1431      -0.49    15.9994
  5659         CL    387   POPC    C21   1431        0.9     12.011
  5660        OBL    387   POPC    O22   1431      -0.63    15.9994
  5661       CTL2    387   POPC    C22   1431      -0.22     12.011
  5662       HAL2    387   POPC    H2R   1431       0.09      1.008
  5663       HAL2    387   POPC    H2S   1431       0.09      1.008
  5664       CTL2    387   POPC     C3   1432       0.08     12.011
  5665       HAL2    387   POPC     HX   1432       0.09      1.008
  5666       HAL2    387   POPC     HY   1432       0.09      1.008
  5667        OSL    387   POPC    O31   1432      -0.49    15.9994
  5668         CL    387   POPC    C31   1432        0.9     12.011
  5669        OBL    387   POPC    O32   1432      -0.63    15.9994
  5670       CTL2    387   POPC    C32   1432      -0.22     12.011
  5671       HAL2    387   POPC    H2X   1432       0.09      1.008
  5672       HAL2    387   POPC    H2Y   1432       0.09      1.008
  5673       CTL2    387   POPC    C23   1433      -0.18     12.011
  5674       HAL2    387   POPC    H3R   1433       0.09      1.008
  5675       HAL2    387   POPC    H3S   1433       0.09      1.008
  5676       CTL2    387   POPC    C24   1434      -0.18     12.011
  5677       HAL2    387   POPC    H4R   1434       0.09      1.008
  5678       HAL2    387   POPC    H4S   1434       0.09      1.008
  5679       CTL2    387   POPC    C25   1435      -0.18     12.011
  5680       HAL2    387   POPC    H5R   1435       0.09      1.008
  5681       HAL2    387   POPC    H5S   1435       0.09      1.008
  5682       CTL2    387   POPC    C26   1436      -0.18     12.011
  5683       HAL2    387   POPC    H6R   1436       0.09      1.008
  5684       HAL2    387   POPC    H6S   1436       0.09      1.008
  5685       CTL2    387   POPC    C27   1437      -0.18     12.011
  5686       HAL2    387   POPC    H7R   1437       0.09      1.008
  5687       HAL2    387   POPC    H7S   1437       0.09      1.008
  5688       CTL2    387   POPC    C28   1438      -0.18     12.011
  5689       HAL2    387   POPC    H8R   1438       0.09      1.008
  5690       HAL2    387   POPC    H8S   1438       0.09      1.008
  5691       CEL1    387   POPC    C29   1439      -0.15     12.011
  5692       HEL1    387   POPC    H91   1439       0.15      1.008
  5693       CEL1    387   POPC   C210   1440      -0.15     12.011
  5694       HEL1    387   POPC   H101   1440       0.15      1.008
  5695       CTL2    387   POPC   C211   1441      -0.18     12.011
  5696       HAL2    387   POPC   H11R   1441       0.09      1.008
  5697       HAL2    387   POPC   H11S   1441       0.09      1.008
  5698       CTL2    387   POPC   C212   1442      -0.18     12.011
  5699       HAL2    387   POPC   H12R   1442       0.09      1.008
  5700       HAL2    387   POPC   H12S   1442       0.09      1.008
  5701       CTL2    387   POPC   C213   1443      -0.18     12.011
  5702       HAL2    387   POPC   H13R   1443       0.09      1.008
  5703       HAL2    387   POPC   H13S   1443       0.09      1.008
  5704       CTL2    387   POPC   C214   1444      -0.18     12.011
  5705       HAL2    387   POPC   H14R   1444       0.09      1.008
  5706       HAL2    387   POPC   H14S   1444       0.09      1.008
  5707       CTL2    387   POPC   C215   1445      -0.18     12.011
  5708       HAL2    387   POPC   H15R   1445       0.09      1.008
  5709       HAL2    387   POPC   H15S   1445       0.09      1.008
  5710       CTL2    387   POPC   C216   1446      -0.18     12.011
  5711       HAL2    387   POPC   H16R   1446       0.09      1.008
  5712       HAL2    387   POPC   H16S   1446       0.09      1.008
  5713       CTL2    387   POPC   C217   1447      -0.18     12.011
  5714       HAL2    387   POPC   H17R   1447       0.09      1.008
  5715       HAL2    387   POPC   H17S   1447       0.09      1.008
  5716       CTL3    387   POPC   C218   1448      -0.27     12.011
  5717       HAL3    387   POPC   H18R   1448       0.09      1.008
  5718       HAL3    387   POPC   H18S   1448       0.09      1.008
  5719       HAL3    387   POPC   H18T   1448       0.09      1.008
  5720       CTL2    387   POPC    C33   1449      -0.18     12.011
  5721       HAL2    387   POPC    H3X   1449       0.09      1.008
  5722       HAL2    387   POPC    H3Y   1449       0.09      1.008
  5723       CTL2    387   POPC    C34   1450      -0.18     12.011
  5724       HAL2    387   POPC    H4X   1450       0.09      1.008
  5725       HAL2    387   POPC    H4Y   1450       0.09      1.008
  5726       CTL2    387   POPC    C35   1451      -0.18     12.011
  5727       HAL2    387   POPC    H5X   1451       0.09      1.008
  5728       HAL2    387   POPC    H5Y   1451       0.09      1.008
  5729       CTL2    387   POPC    C36   1452      -0.18     12.011
  5730       HAL2    387   POPC    H6X   1452       0.09      1.008
  5731       HAL2    387   POPC    H6Y   1452       0.09      1.008
  5732       CTL2    387   POPC    C37   1453      -0.18     12.011
  5733       HAL2    387   POPC    H7X   1453       0.09      1.008
  5734       HAL2    387   POPC    H7Y   1453       0.09      1.008
  5735       CTL2    387   POPC    C38   1454      -0.18     12.011
  5736       HAL2    387   POPC    H8X   1454       0.09      1.008
  5737       HAL2    387   POPC    H8Y   1454       0.09      1.008
  5738       CTL2    387   POPC    C39   1455      -0.18     12.011
  5739       HAL2    387   POPC    H9X   1455       0.09      1.008
  5740       HAL2    387   POPC    H9Y   1455       0.09      1.008
  5741       CTL2    387   POPC   C310   1456      -0.18     12.011
  5742       HAL2    387   POPC   H10X   1456       0.09      1.008
  5743       HAL2    387   POPC   H10Y   1456       0.09      1.008
  5744       CTL2    387   POPC   C311   1457      -0.18     12.011
  5745       HAL2    387   POPC   H11X   1457       0.09      1.008
  5746       HAL2    387   POPC   H11Y   1457       0.09      1.008
  5747       CTL2    387   POPC   C312   1458      -0.18     12.011
  5748       HAL2    387   POPC   H12X   1458       0.09      1.008
  5749       HAL2    387   POPC   H12Y   1458       0.09      1.008
  5750       CTL2    387   POPC   C313   1459      -0.18     12.011
  5751       HAL2    387   POPC   H13X   1459       0.09      1.008
  5752       HAL2    387   POPC   H13Y   1459       0.09      1.008
  5753       CTL2    387   POPC   C314   1460      -0.18     12.011
  5754       HAL2    387   POPC   H14X   1460       0.09      1.008
  5755       HAL2    387   POPC   H14Y   1460       0.09      1.008
  5756       CTL2    387   POPC   C315   1461      -0.18     12.011
  5757       HAL2    387   POPC   H15X   1461       0.09      1.008
  5758       HAL2    387   POPC   H15Y   1461       0.09      1.008
  5759       CTL3    387   POPC   C316   1462      -0.27     12.011
  5760       HAL3    387   POPC   H16X   1462       0.09      1.008
  5761       HAL3    387   POPC   H16Y   1462       0.09      1.008
  5762       HAL3    387   POPC   H16Z   1462       0.09      1.008   ; qtot 0
; residue 388 POPC rtp POPC q  0.0
  5763        NTL    388   POPC      N   1463       -0.6     14.007
  5764       CTL2    388   POPC    C12   1463       -0.1     12.011
  5765         HL    388   POPC   H12A   1463       0.25      1.008
  5766         HL    388   POPC   H12B   1463       0.25      1.008
  5767       CTL5    388   POPC    C13   1463      -0.35     12.011
  5768         HL    388   POPC   H13A   1463       0.25      1.008
  5769         HL    388   POPC   H13B   1463       0.25      1.008
  5770         HL    388   POPC   H13C   1463       0.25      1.008
  5771       CTL5    388   POPC    C14   1463      -0.35     12.011
  5772         HL    388   POPC   H14A   1463       0.25      1.008
  5773         HL    388   POPC   H14B   1463       0.25      1.008
  5774         HL    388   POPC   H14C   1463       0.25      1.008
  5775       CTL5    388   POPC    C15   1463      -0.35     12.011
  5776         HL    388   POPC   H15A   1463       0.25      1.008
  5777         HL    388   POPC   H15B   1463       0.25      1.008
  5778         HL    388   POPC   H15C   1463       0.25      1.008
  5779       CTL2    388   POPC    C11   1464      -0.08     12.011
  5780       HAL2    388   POPC   H11A   1464       0.09      1.008
  5781       HAL2    388   POPC   H11B   1464       0.09      1.008
  5782         PL    388   POPC      P   1464        1.5     30.974
  5783        O2L    388   POPC    O13   1464      -0.78    15.9994
  5784        O2L    388   POPC    O14   1464      -0.78    15.9994
  5785       OSLP    388   POPC    O12   1464      -0.57    15.9994
  5786       OSLP    388   POPC    O11   1464      -0.57    15.9994
  5787       CTL2    388   POPC     C1   1464      -0.08     12.011
  5788       HAL2    388   POPC     HA   1464       0.09      1.008
  5789       HAL2    388   POPC     HB   1464       0.09      1.008
  5790       CTL1    388   POPC     C2   1465       0.17     12.011
  5791       HAL1    388   POPC     HS   1465       0.09      1.008
  5792        OSL    388   POPC    O21   1465      -0.49    15.9994
  5793         CL    388   POPC    C21   1465        0.9     12.011
  5794        OBL    388   POPC    O22   1465      -0.63    15.9994
  5795       CTL2    388   POPC    C22   1465      -0.22     12.011
  5796       HAL2    388   POPC    H2R   1465       0.09      1.008
  5797       HAL2    388   POPC    H2S   1465       0.09      1.008
  5798       CTL2    388   POPC     C3   1466       0.08     12.011
  5799       HAL2    388   POPC     HX   1466       0.09      1.008
  5800       HAL2    388   POPC     HY   1466       0.09      1.008
  5801        OSL    388   POPC    O31   1466      -0.49    15.9994
  5802         CL    388   POPC    C31   1466        0.9     12.011
  5803        OBL    388   POPC    O32   1466      -0.63    15.9994
  5804       CTL2    388   POPC    C32   1466      -0.22     12.011
  5805       HAL2    388   POPC    H2X   1466       0.09      1.008
  5806       HAL2    388   POPC    H2Y   1466       0.09      1.008
  5807       CTL2    388   POPC    C23   1467      -0.18     12.011
  5808       HAL2    388   POPC    H3R   1467       0.09      1.008
  5809       HAL2    388   POPC    H3S   1467       0.09      1.008
  5810       CTL2    388   POPC    C24   1468      -0.18     12.011
  5811       HAL2    388   POPC    H4R   1468       0.09      1.008
  5812       HAL2    388   POPC    H4S   1468       0.09      1.008
  5813       CTL2    388   POPC    C25   1469      -0.18     12.011
  5814       HAL2    388   POPC    H5R   1469       0.09      1.008
  5815       HAL2    388   POPC    H5S   1469       0.09      1.008
  5816       CTL2    388   POPC    C26   1470      -0.18     12.011
  5817       HAL2    388   POPC    H6R   1470       0.09      1.008
  5818       HAL2    388   POPC    H6S   1470       0.09      1.008
  5819       CTL2    388   POPC    C27   1471      -0.18     12.011
  5820       HAL2    388   POPC    H7R   1471       0.09      1.008
  5821       HAL2    388   POPC    H7S   1471       0.09      1.008
  5822       CTL2    388   POPC    C28   1472      -0.18     12.011
  5823       HAL2    388   POPC    H8R   1472       0.09      1.008
  5824       HAL2    388   POPC    H8S   1472       0.09      1.008
  5825       CEL1    388   POPC    C29   1473      -0.15     12.011
  5826       HEL1    388   POPC    H91   1473       0.15      1.008
  5827       CEL1    388   POPC   C210   1474      -0.15     12.011
  5828       HEL1    388   POPC   H101   1474       0.15      1.008
  5829       CTL2    388   POPC   C211   1475      -0.18     12.011
  5830       HAL2    388   POPC   H11R   1475       0.09      1.008
  5831       HAL2    388   POPC   H11S   1475       0.09      1.008
  5832       CTL2    388   POPC   C212   1476      -0.18     12.011
  5833       HAL2    388   POPC   H12R   1476       0.09      1.008
  5834       HAL2    388   POPC   H12S   1476       0.09      1.008
  5835       CTL2    388   POPC   C213   1477      -0.18     12.011
  5836       HAL2    388   POPC   H13R   1477       0.09      1.008
  5837       HAL2    388   POPC   H13S   1477       0.09      1.008
  5838       CTL2    388   POPC   C214   1478      -0.18     12.011
  5839       HAL2    388   POPC   H14R   1478       0.09      1.008
  5840       HAL2    388   POPC   H14S   1478       0.09      1.008
  5841       CTL2    388   POPC   C215   1479      -0.18     12.011
  5842       HAL2    388   POPC   H15R   1479       0.09      1.008
  5843       HAL2    388   POPC   H15S   1479       0.09      1.008
  5844       CTL2    388   POPC   C216   1480      -0.18     12.011
  5845       HAL2    388   POPC   H16R   1480       0.09      1.008
  5846       HAL2    388   POPC   H16S   1480       0.09      1.008
  5847       CTL2    388   POPC   C217   1481      -0.18     12.011
  5848       HAL2    388   POPC   H17R   1481       0.09      1.008
  5849       HAL2    388   POPC   H17S   1481       0.09      1.008
  5850       CTL3    388   POPC   C218   1482      -0.27     12.011
  5851       HAL3    388   POPC   H18R   1482       0.09      1.008
  5852       HAL3    388   POPC   H18S   1482       0.09      1.008
  5853       HAL3    388   POPC   H18T   1482       0.09      1.008
  5854       CTL2    388   POPC    C33   1483      -0.18     12.011
  5855       HAL2    388   POPC    H3X   1483       0.09      1.008
  5856       HAL2    388   POPC    H3Y   1483       0.09      1.008
  5857       CTL2    388   POPC    C34   1484      -0.18     12.011
  5858       HAL2    388   POPC    H4X   1484       0.09      1.008
  5859       HAL2    388   POPC    H4Y   1484       0.09      1.008
  5860       CTL2    388   POPC    C35   1485      -0.18     12.011
  5861       HAL2    388   POPC    H5X   1485       0.09      1.008
  5862       HAL2    388   POPC    H5Y   1485       0.09      1.008
  5863       CTL2    388   POPC    C36   1486      -0.18     12.011
  5864       HAL2    388   POPC    H6X   1486       0.09      1.008
  5865       HAL2    388   POPC    H6Y   1486       0.09      1.008
  5866       CTL2    388   POPC    C37   1487      -0.18     12.011
  5867       HAL2    388   POPC    H7X   1487       0.09      1.008
  5868       HAL2    388   POPC    H7Y   1487       0.09      1.008
  5869       CTL2    388   POPC    C38   1488      -0.18     12.011
  5870       HAL2    388   POPC    H8X   1488       0.09      1.008
  5871       HAL2    388   POPC    H8Y   1488       0.09      1.008
  5872       CTL2    388   POPC    C39   1489      -0.18     12.011
  5873       HAL2    388   POPC    H9X   1489       0.09      1.008
  5874       HAL2    388   POPC    H9Y   1489       0.09      1.008
  5875       CTL2    388   POPC   C310   1490      -0.18     12.011
  5876       HAL2    388   POPC   H10X   1490       0.09      1.008
  5877       HAL2    388   POPC   H10Y   1490       0.09      1.008
  5878       CTL2    388   POPC   C311   1491      -0.18     12.011
  5879       HAL2    388   POPC   H11X   1491       0.09      1.008
  5880       HAL2    388   POPC   H11Y   1491       0.09      1.008
  5881       CTL2    388   POPC   C312   1492      -0.18     12.011
  5882       HAL2    388   POPC   H12X   1492       0.09      1.008
  5883       HAL2    388   POPC   H12Y   1492       0.09      1.008
  5884       CTL2    388   POPC   C313   1493      -0.18     12.011
  5885       HAL2    388   POPC   H13X   1493       0.09      1.008
  5886       HAL2    388   POPC   H13Y   1493       0.09      1.008
  5887       CTL2    388   POPC   C314   1494      -0.18     12.011
  5888       HAL2    388   POPC   H14X   1494       0.09      1.008
  5889       HAL2    388   POPC   H14Y   1494       0.09      1.008
  5890       CTL2    388   POPC   C315   1495      -0.18     12.011
  5891       HAL2    388   POPC   H15X   1495       0.09      1.008
  5892       HAL2    388   POPC   H15Y   1495       0.09      1.008
  5893       CTL3    388   POPC   C316   1496      -0.27     12.011
  5894       HAL3    388   POPC   H16X   1496       0.09      1.008
  5895       HAL3    388   POPC   H16Y   1496       0.09      1.008
  5896       HAL3    388   POPC   H16Z   1496       0.09      1.008   ; qtot 0
; residue 389 POPC rtp POPC q  0.0
  5897        NTL    389   POPC      N   1497       -0.6     14.007
  5898       CTL2    389   POPC    C12   1497       -0.1     12.011
  5899         HL    389   POPC   H12A   1497       0.25      1.008
  5900         HL    389   POPC   H12B   1497       0.25      1.008
  5901       CTL5    389   POPC    C13   1497      -0.35     12.011
  5902         HL    389   POPC   H13A   1497       0.25      1.008
  5903         HL    389   POPC   H13B   1497       0.25      1.008
  5904         HL    389   POPC   H13C   1497       0.25      1.008
  5905       CTL5    389   POPC    C14   1497      -0.35     12.011
  5906         HL    389   POPC   H14A   1497       0.25      1.008
  5907         HL    389   POPC   H14B   1497       0.25      1.008
  5908         HL    389   POPC   H14C   1497       0.25      1.008
  5909       CTL5    389   POPC    C15   1497      -0.35     12.011
  5910         HL    389   POPC   H15A   1497       0.25      1.008
  5911         HL    389   POPC   H15B   1497       0.25      1.008
  5912         HL    389   POPC   H15C   1497       0.25      1.008
  5913       CTL2    389   POPC    C11   1498      -0.08     12.011
  5914       HAL2    389   POPC   H11A   1498       0.09      1.008
  5915       HAL2    389   POPC   H11B   1498       0.09      1.008
  5916         PL    389   POPC      P   1498        1.5     30.974
  5917        O2L    389   POPC    O13   1498      -0.78    15.9994
  5918        O2L    389   POPC    O14   1498      -0.78    15.9994
  5919       OSLP    389   POPC    O12   1498      -0.57    15.9994
  5920       OSLP    389   POPC    O11   1498      -0.57    15.9994
  5921       CTL2    389   POPC     C1   1498      -0.08     12.011
  5922       HAL2    389   POPC     HA   1498       0.09      1.008
  5923       HAL2    389   POPC     HB   1498       0.09      1.008
  5924       CTL1    389   POPC     C2   1499       0.17     12.011
  5925       HAL1    389   POPC     HS   1499       0.09      1.008
  5926        OSL    389   POPC    O21   1499      -0.49    15.9994
  5927         CL    389   POPC    C21   1499        0.9     12.011
  5928        OBL    389   POPC    O22   1499      -0.63    15.9994
  5929       CTL2    389   POPC    C22   1499      -0.22     12.011
  5930       HAL2    389   POPC    H2R   1499       0.09      1.008
  5931       HAL2    389   POPC    H2S   1499       0.09      1.008
  5932       CTL2    389   POPC     C3   1500       0.08     12.011
  5933       HAL2    389   POPC     HX   1500       0.09      1.008
  5934       HAL2    389   POPC     HY   1500       0.09      1.008
  5935        OSL    389   POPC    O31   1500      -0.49    15.9994
  5936         CL    389   POPC    C31   1500        0.9     12.011
  5937        OBL    389   POPC    O32   1500      -0.63    15.9994
  5938       CTL2    389   POPC    C32   1500      -0.22     12.011
  5939       HAL2    389   POPC    H2X   1500       0.09      1.008
  5940       HAL2    389   POPC    H2Y   1500       0.09      1.008
  5941       CTL2    389   POPC    C23   1501      -0.18     12.011
  5942       HAL2    389   POPC    H3R   1501       0.09      1.008
  5943       HAL2    389   POPC    H3S   1501       0.09      1.008
  5944       CTL2    389   POPC    C24   1502      -0.18     12.011
  5945       HAL2    389   POPC    H4R   1502       0.09      1.008
  5946       HAL2    389   POPC    H4S   1502       0.09      1.008
  5947       CTL2    389   POPC    C25   1503      -0.18     12.011
  5948       HAL2    389   POPC    H5R   1503       0.09      1.008
  5949       HAL2    389   POPC    H5S   1503       0.09      1.008
  5950       CTL2    389   POPC    C26   1504      -0.18     12.011
  5951       HAL2    389   POPC    H6R   1504       0.09      1.008
  5952       HAL2    389   POPC    H6S   1504       0.09      1.008
  5953       CTL2    389   POPC    C27   1505      -0.18     12.011
  5954       HAL2    389   POPC    H7R   1505       0.09      1.008
  5955       HAL2    389   POPC    H7S   1505       0.09      1.008
  5956       CTL2    389   POPC    C28   1506      -0.18     12.011
  5957       HAL2    389   POPC    H8R   1506       0.09      1.008
  5958       HAL2    389   POPC    H8S   1506       0.09      1.008
  5959       CEL1    389   POPC    C29   1507      -0.15     12.011
  5960       HEL1    389   POPC    H91   1507       0.15      1.008
  5961       CEL1    389   POPC   C210   1508      -0.15     12.011
  5962       HEL1    389   POPC   H101   1508       0.15      1.008
  5963       CTL2    389   POPC   C211   1509      -0.18     12.011
  5964       HAL2    389   POPC   H11R   1509       0.09      1.008
  5965       HAL2    389   POPC   H11S   1509       0.09      1.008
  5966       CTL2    389   POPC   C212   1510      -0.18     12.011
  5967       HAL2    389   POPC   H12R   1510       0.09      1.008
  5968       HAL2    389   POPC   H12S   1510       0.09      1.008
  5969       CTL2    389   POPC   C213   1511      -0.18     12.011
  5970       HAL2    389   POPC   H13R   1511       0.09      1.008
  5971       HAL2    389   POPC   H13S   1511       0.09      1.008
  5972       CTL2    389   POPC   C214   1512      -0.18     12.011
  5973       HAL2    389   POPC   H14R   1512       0.09      1.008
  5974       HAL2    389   POPC   H14S   1512       0.09      1.008
  5975       CTL2    389   POPC   C215   1513      -0.18     12.011
  5976       HAL2    389   POPC   H15R   1513       0.09      1.008
  5977       HAL2    389   POPC   H15S   1513       0.09      1.008
  5978       CTL2    389   POPC   C216   1514      -0.18     12.011
  5979       HAL2    389   POPC   H16R   1514       0.09      1.008
  5980       HAL2    389   POPC   H16S   1514       0.09      1.008
  5981       CTL2    389   POPC   C217   1515      -0.18     12.011
  5982       HAL2    389   POPC   H17R   1515       0.09      1.008
  5983       HAL2    389   POPC   H17S   1515       0.09      1.008
  5984       CTL3    389   POPC   C218   1516      -0.27     12.011
  5985       HAL3    389   POPC   H18R   1516       0.09      1.008
  5986       HAL3    389   POPC   H18S   1516       0.09      1.008
  5987       HAL3    389   POPC   H18T   1516       0.09      1.008
  5988       CTL2    389   POPC    C33   1517      -0.18     12.011
  5989       HAL2    389   POPC    H3X   1517       0.09      1.008
  5990       HAL2    389   POPC    H3Y   1517       0.09      1.008
  5991       CTL2    389   POPC    C34   1518      -0.18     12.011
  5992       HAL2    389   POPC    H4X   1518       0.09      1.008
  5993       HAL2    389   POPC    H4Y   1518       0.09      1.008
  5994       CTL2    389   POPC    C35   1519      -0.18     12.011
  5995       HAL2    389   POPC    H5X   1519       0.09      1.008
  5996       HAL2    389   POPC    H5Y   1519       0.09      1.008
  5997       CTL2    389   POPC    C36   1520      -0.18     12.011
  5998       HAL2    389   POPC    H6X   1520       0.09      1.008
  5999       HAL2    389   POPC    H6Y   1520       0.09      1.008
  6000       CTL2    389   POPC    C37   1521      -0.18     12.011
  6001       HAL2    389   POPC    H7X   1521       0.09      1.008
  6002       HAL2    389   POPC    H7Y   1521       0.09      1.008
  6003       CTL2    389   POPC    C38   1522      -0.18     12.011
  6004       HAL2    389   POPC    H8X   1522       0.09      1.008
  6005       HAL2    389   POPC    H8Y   1522       0.09      1.008
  6006       CTL2    389   POPC    C39   1523      -0.18     12.011
  6007       HAL2    389   POPC    H9X   1523       0.09      1.008
  6008       HAL2    389   POPC    H9Y   1523       0.09      1.008
  6009       CTL2    389   POPC   C310   1524      -0.18     12.011
  6010       HAL2    389   POPC   H10X   1524       0.09      1.008
  6011       HAL2    389   POPC   H10Y   1524       0.09      1.008
  6012       CTL2    389   POPC   C311   1525      -0.18     12.011
  6013       HAL2    389   POPC   H11X   1525       0.09      1.008
  6014       HAL2    389   POPC   H11Y   1525       0.09      1.008
  6015       CTL2    389   POPC   C312   1526      -0.18     12.011
  6016       HAL2    389   POPC   H12X   1526       0.09      1.008
  6017       HAL2    389   POPC   H12Y   1526       0.09      1.008
  6018       CTL2    389   POPC   C313   1527      -0.18     12.011
  6019       HAL2    389   POPC   H13X   1527       0.09      1.008
  6020       HAL2    389   POPC   H13Y   1527       0.09      1.008
  6021       CTL2    389   POPC   C314   1528      -0.18     12.011
  6022       HAL2    389   POPC   H14X   1528       0.09      1.008
  6023       HAL2    389   POPC   H14Y   1528       0.09      1.008
  6024       CTL2    389   POPC   C315   1529      -0.18     12.011
  6025       HAL2    389   POPC   H15X   1529       0.09      1.008
  6026       HAL2    389   POPC   H15Y   1529       0.09      1.008
  6027       CTL3    389   POPC   C316   1530      -0.27     12.011
  6028       HAL3    389   POPC   H16X   1530       0.09      1.008
  6029       HAL3    389   POPC   H16Y   1530       0.09      1.008
  6030       HAL3    389   POPC   H16Z   1530       0.09      1.008   ; qtot 0
; residue 390 POPC rtp POPC q  0.0
  6031        NTL    390   POPC      N   1531       -0.6     14.007
  6032       CTL2    390   POPC    C12   1531       -0.1     12.011
  6033         HL    390   POPC   H12A   1531       0.25      1.008
  6034         HL    390   POPC   H12B   1531       0.25      1.008
  6035       CTL5    390   POPC    C13   1531      -0.35     12.011
  6036         HL    390   POPC   H13A   1531       0.25      1.008
  6037         HL    390   POPC   H13B   1531       0.25      1.008
  6038         HL    390   POPC   H13C   1531       0.25      1.008
  6039       CTL5    390   POPC    C14   1531      -0.35     12.011
  6040         HL    390   POPC   H14A   1531       0.25      1.008
  6041         HL    390   POPC   H14B   1531       0.25      1.008
  6042         HL    390   POPC   H14C   1531       0.25      1.008
  6043       CTL5    390   POPC    C15   1531      -0.35     12.011
  6044         HL    390   POPC   H15A   1531       0.25      1.008
  6045         HL    390   POPC   H15B   1531       0.25      1.008
  6046         HL    390   POPC   H15C   1531       0.25      1.008
  6047       CTL2    390   POPC    C11   1532      -0.08     12.011
  6048       HAL2    390   POPC   H11A   1532       0.09      1.008
  6049       HAL2    390   POPC   H11B   1532       0.09      1.008
  6050         PL    390   POPC      P   1532        1.5     30.974
  6051        O2L    390   POPC    O13   1532      -0.78    15.9994
  6052        O2L    390   POPC    O14   1532      -0.78    15.9994
  6053       OSLP    390   POPC    O12   1532      -0.57    15.9994
  6054       OSLP    390   POPC    O11   1532      -0.57    15.9994
  6055       CTL2    390   POPC     C1   1532      -0.08     12.011
  6056       HAL2    390   POPC     HA   1532       0.09      1.008
  6057       HAL2    390   POPC     HB   1532       0.09      1.008
  6058       CTL1    390   POPC     C2   1533       0.17     12.011
  6059       HAL1    390   POPC     HS   1533       0.09      1.008
  6060        OSL    390   POPC    O21   1533      -0.49    15.9994
  6061         CL    390   POPC    C21   1533        0.9     12.011
  6062        OBL    390   POPC    O22   1533      -0.63    15.9994
  6063       CTL2    390   POPC    C22   1533      -0.22     12.011
  6064       HAL2    390   POPC    H2R   1533       0.09      1.008
  6065       HAL2    390   POPC    H2S   1533       0.09      1.008
  6066       CTL2    390   POPC     C3   1534       0.08     12.011
  6067       HAL2    390   POPC     HX   1534       0.09      1.008
  6068       HAL2    390   POPC     HY   1534       0.09      1.008
  6069        OSL    390   POPC    O31   1534      -0.49    15.9994
  6070         CL    390   POPC    C31   1534        0.9     12.011
  6071        OBL    390   POPC    O32   1534      -0.63    15.9994
  6072       CTL2    390   POPC    C32   1534      -0.22     12.011
  6073       HAL2    390   POPC    H2X   1534       0.09      1.008
  6074       HAL2    390   POPC    H2Y   1534       0.09      1.008
  6075       CTL2    390   POPC    C23   1535      -0.18     12.011
  6076       HAL2    390   POPC    H3R   1535       0.09      1.008
  6077       HAL2    390   POPC    H3S   1535       0.09      1.008
  6078       CTL2    390   POPC    C24   1536      -0.18     12.011
  6079       HAL2    390   POPC    H4R   1536       0.09      1.008
  6080       HAL2    390   POPC    H4S   1536       0.09      1.008
  6081       CTL2    390   POPC    C25   1537      -0.18     12.011
  6082       HAL2    390   POPC    H5R   1537       0.09      1.008
  6083       HAL2    390   POPC    H5S   1537       0.09      1.008
  6084       CTL2    390   POPC    C26   1538      -0.18     12.011
  6085       HAL2    390   POPC    H6R   1538       0.09      1.008
  6086       HAL2    390   POPC    H6S   1538       0.09      1.008
  6087       CTL2    390   POPC    C27   1539      -0.18     12.011
  6088       HAL2    390   POPC    H7R   1539       0.09      1.008
  6089       HAL2    390   POPC    H7S   1539       0.09      1.008
  6090       CTL2    390   POPC    C28   1540      -0.18     12.011
  6091       HAL2    390   POPC    H8R   1540       0.09      1.008
  6092       HAL2    390   POPC    H8S   1540       0.09      1.008
  6093       CEL1    390   POPC    C29   1541      -0.15     12.011
  6094       HEL1    390   POPC    H91   1541       0.15      1.008
  6095       CEL1    390   POPC   C210   1542      -0.15     12.011
  6096       HEL1    390   POPC   H101   1542       0.15      1.008
  6097       CTL2    390   POPC   C211   1543      -0.18     12.011
  6098       HAL2    390   POPC   H11R   1543       0.09      1.008
  6099       HAL2    390   POPC   H11S   1543       0.09      1.008
  6100       CTL2    390   POPC   C212   1544      -0.18     12.011
  6101       HAL2    390   POPC   H12R   1544       0.09      1.008
  6102       HAL2    390   POPC   H12S   1544       0.09      1.008
  6103       CTL2    390   POPC   C213   1545      -0.18     12.011
  6104       HAL2    390   POPC   H13R   1545       0.09      1.008
  6105       HAL2    390   POPC   H13S   1545       0.09      1.008
  6106       CTL2    390   POPC   C214   1546      -0.18     12.011
  6107       HAL2    390   POPC   H14R   1546       0.09      1.008
  6108       HAL2    390   POPC   H14S   1546       0.09      1.008
  6109       CTL2    390   POPC   C215   1547      -0.18     12.011
  6110       HAL2    390   POPC   H15R   1547       0.09      1.008
  6111       HAL2    390   POPC   H15S   1547       0.09      1.008
  6112       CTL2    390   POPC   C216   1548      -0.18     12.011
  6113       HAL2    390   POPC   H16R   1548       0.09      1.008
  6114       HAL2    390   POPC   H16S   1548       0.09      1.008
  6115       CTL2    390   POPC   C217   1549      -0.18     12.011
  6116       HAL2    390   POPC   H17R   1549       0.09      1.008
  6117       HAL2    390   POPC   H17S   1549       0.09      1.008
  6118       CTL3    390   POPC   C218   1550      -0.27     12.011
  6119       HAL3    390   POPC   H18R   1550       0.09      1.008
  6120       HAL3    390   POPC   H18S   1550       0.09      1.008
  6121       HAL3    390   POPC   H18T   1550       0.09      1.008
  6122       CTL2    390   POPC    C33   1551      -0.18     12.011
  6123       HAL2    390   POPC    H3X   1551       0.09      1.008
  6124       HAL2    390   POPC    H3Y   1551       0.09      1.008
  6125       CTL2    390   POPC    C34   1552      -0.18     12.011
  6126       HAL2    390   POPC    H4X   1552       0.09      1.008
  6127       HAL2    390   POPC    H4Y   1552       0.09      1.008
  6128       CTL2    390   POPC    C35   1553      -0.18     12.011
  6129       HAL2    390   POPC    H5X   1553       0.09      1.008
  6130       HAL2    390   POPC    H5Y   1553       0.09      1.008
  6131       CTL2    390   POPC    C36   1554      -0.18     12.011
  6132       HAL2    390   POPC    H6X   1554       0.09      1.008
  6133       HAL2    390   POPC    H6Y   1554       0.09      1.008
  6134       CTL2    390   POPC    C37   1555      -0.18     12.011
  6135       HAL2    390   POPC    H7X   1555       0.09      1.008
  6136       HAL2    390   POPC    H7Y   1555       0.09      1.008
  6137       CTL2    390   POPC    C38   1556      -0.18     12.011
  6138       HAL2    390   POPC    H8X   1556       0.09      1.008
  6139       HAL2    390   POPC    H8Y   1556       0.09      1.008
  6140       CTL2    390   POPC    C39   1557      -0.18     12.011
  6141       HAL2    390   POPC    H9X   1557       0.09      1.008
  6142       HAL2    390   POPC    H9Y   1557       0.09      1.008
  6143       CTL2    390   POPC   C310   1558      -0.18     12.011
  6144       HAL2    390   POPC   H10X   1558       0.09      1.008
  6145       HAL2    390   POPC   H10Y   1558       0.09      1.008
  6146       CTL2    390   POPC   C311   1559      -0.18     12.011
  6147       HAL2    390   POPC   H11X   1559       0.09      1.008
  6148       HAL2    390   POPC   H11Y   1559       0.09      1.008
  6149       CTL2    390   POPC   C312   1560      -0.18     12.011
  6150       HAL2    390   POPC   H12X   1560       0.09      1.008
  6151       HAL2    390   POPC   H12Y   1560       0.09      1.008
  6152       CTL2    390   POPC   C313   1561      -0.18     12.011
  6153       HAL2    390   POPC   H13X   1561       0.09      1.008
  6154       HAL2    390   POPC   H13Y   1561       0.09      1.008
  6155       CTL2    390   POPC   C314   1562      -0.18     12.011
  6156       HAL2    390   POPC   H14X   1562       0.09      1.008
  6157       HAL2    390   POPC   H14Y   1562       0.09      1.008
  6158       CTL2    390   POPC   C315   1563      -0.18     12.011
  6159       HAL2    390   POPC   H15X   1563       0.09      1.008
  6160       HAL2    390   POPC   H15Y   1563       0.09      1.008
  6161       CTL3    390   POPC   C316   1564      -0.27     12.011
  6162       HAL3    390   POPC   H16X   1564       0.09      1.008
  6163       HAL3    390   POPC   H16Y   1564       0.09      1.008
  6164       HAL3    390   POPC   H16Z   1564       0.09      1.008   ; qtot 0
; residue 391 POPC rtp POPC q  0.0
  6165        NTL    391   POPC      N   1565       -0.6     14.007
  6166       CTL2    391   POPC    C12   1565       -0.1     12.011
  6167         HL    391   POPC   H12A   1565       0.25      1.008
  6168         HL    391   POPC   H12B   1565       0.25      1.008
  6169       CTL5    391   POPC    C13   1565      -0.35     12.011
  6170         HL    391   POPC   H13A   1565       0.25      1.008
  6171         HL    391   POPC   H13B   1565       0.25      1.008
  6172         HL    391   POPC   H13C   1565       0.25      1.008
  6173       CTL5    391   POPC    C14   1565      -0.35     12.011
  6174         HL    391   POPC   H14A   1565       0.25      1.008
  6175         HL    391   POPC   H14B   1565       0.25      1.008
  6176         HL    391   POPC   H14C   1565       0.25      1.008
  6177       CTL5    391   POPC    C15   1565      -0.35     12.011
  6178         HL    391   POPC   H15A   1565       0.25      1.008
  6179         HL    391   POPC   H15B   1565       0.25      1.008
  6180         HL    391   POPC   H15C   1565       0.25      1.008
  6181       CTL2    391   POPC    C11   1566      -0.08     12.011
  6182       HAL2    391   POPC   H11A   1566       0.09      1.008
  6183       HAL2    391   POPC   H11B   1566       0.09      1.008
  6184         PL    391   POPC      P   1566        1.5     30.974
  6185        O2L    391   POPC    O13   1566      -0.78    15.9994
  6186        O2L    391   POPC    O14   1566      -0.78    15.9994
  6187       OSLP    391   POPC    O12   1566      -0.57    15.9994
  6188       OSLP    391   POPC    O11   1566      -0.57    15.9994
  6189       CTL2    391   POPC     C1   1566      -0.08     12.011
  6190       HAL2    391   POPC     HA   1566       0.09      1.008
  6191       HAL2    391   POPC     HB   1566       0.09      1.008
  6192       CTL1    391   POPC     C2   1567       0.17     12.011
  6193       HAL1    391   POPC     HS   1567       0.09      1.008
  6194        OSL    391   POPC    O21   1567      -0.49    15.9994
  6195         CL    391   POPC    C21   1567        0.9     12.011
  6196        OBL    391   POPC    O22   1567      -0.63    15.9994
  6197       CTL2    391   POPC    C22   1567      -0.22     12.011
  6198       HAL2    391   POPC    H2R   1567       0.09      1.008
  6199       HAL2    391   POPC    H2S   1567       0.09      1.008
  6200       CTL2    391   POPC     C3   1568       0.08     12.011
  6201       HAL2    391   POPC     HX   1568       0.09      1.008
  6202       HAL2    391   POPC     HY   1568       0.09      1.008
  6203        OSL    391   POPC    O31   1568      -0.49    15.9994
  6204         CL    391   POPC    C31   1568        0.9     12.011
  6205        OBL    391   POPC    O32   1568      -0.63    15.9994
  6206       CTL2    391   POPC    C32   1568      -0.22     12.011
  6207       HAL2    391   POPC    H2X   1568       0.09      1.008
  6208       HAL2    391   POPC    H2Y   1568       0.09      1.008
  6209       CTL2    391   POPC    C23   1569      -0.18     12.011
  6210       HAL2    391   POPC    H3R   1569       0.09      1.008
  6211       HAL2    391   POPC    H3S   1569       0.09      1.008
  6212       CTL2    391   POPC    C24   1570      -0.18     12.011
  6213       HAL2    391   POPC    H4R   1570       0.09      1.008
  6214       HAL2    391   POPC    H4S   1570       0.09      1.008
  6215       CTL2    391   POPC    C25   1571      -0.18     12.011
  6216       HAL2    391   POPC    H5R   1571       0.09      1.008
  6217       HAL2    391   POPC    H5S   1571       0.09      1.008
  6218       CTL2    391   POPC    C26   1572      -0.18     12.011
  6219       HAL2    391   POPC    H6R   1572       0.09      1.008
  6220       HAL2    391   POPC    H6S   1572       0.09      1.008
  6221       CTL2    391   POPC    C27   1573      -0.18     12.011
  6222       HAL2    391   POPC    H7R   1573       0.09      1.008
  6223       HAL2    391   POPC    H7S   1573       0.09      1.008
  6224       CTL2    391   POPC    C28   1574      -0.18     12.011
  6225       HAL2    391   POPC    H8R   1574       0.09      1.008
  6226       HAL2    391   POPC    H8S   1574       0.09      1.008
  6227       CEL1    391   POPC    C29   1575      -0.15     12.011
  6228       HEL1    391   POPC    H91   1575       0.15      1.008
  6229       CEL1    391   POPC   C210   1576      -0.15     12.011
  6230       HEL1    391   POPC   H101   1576       0.15      1.008
  6231       CTL2    391   POPC   C211   1577      -0.18     12.011
  6232       HAL2    391   POPC   H11R   1577       0.09      1.008
  6233       HAL2    391   POPC   H11S   1577       0.09      1.008
  6234       CTL2    391   POPC   C212   1578      -0.18     12.011
  6235       HAL2    391   POPC   H12R   1578       0.09      1.008
  6236       HAL2    391   POPC   H12S   1578       0.09      1.008
  6237       CTL2    391   POPC   C213   1579      -0.18     12.011
  6238       HAL2    391   POPC   H13R   1579       0.09      1.008
  6239       HAL2    391   POPC   H13S   1579       0.09      1.008
  6240       CTL2    391   POPC   C214   1580      -0.18     12.011
  6241       HAL2    391   POPC   H14R   1580       0.09      1.008
  6242       HAL2    391   POPC   H14S   1580       0.09      1.008
  6243       CTL2    391   POPC   C215   1581      -0.18     12.011
  6244       HAL2    391   POPC   H15R   1581       0.09      1.008
  6245       HAL2    391   POPC   H15S   1581       0.09      1.008
  6246       CTL2    391   POPC   C216   1582      -0.18     12.011
  6247       HAL2    391   POPC   H16R   1582       0.09      1.008
  6248       HAL2    391   POPC   H16S   1582       0.09      1.008
  6249       CTL2    391   POPC   C217   1583      -0.18     12.011
  6250       HAL2    391   POPC   H17R   1583       0.09      1.008
  6251       HAL2    391   POPC   H17S   1583       0.09      1.008
  6252       CTL3    391   POPC   C218   1584      -0.27     12.011
  6253       HAL3    391   POPC   H18R   1584       0.09      1.008
  6254       HAL3    391   POPC   H18S   1584       0.09      1.008
  6255       HAL3    391   POPC   H18T   1584       0.09      1.008
  6256       CTL2    391   POPC    C33   1585      -0.18     12.011
  6257       HAL2    391   POPC    H3X   1585       0.09      1.008
  6258       HAL2    391   POPC    H3Y   1585       0.09      1.008
  6259       CTL2    391   POPC    C34   1586      -0.18     12.011
  6260       HAL2    391   POPC    H4X   1586       0.09      1.008
  6261       HAL2    391   POPC    H4Y   1586       0.09      1.008
  6262       CTL2    391   POPC    C35   1587      -0.18     12.011
  6263       HAL2    391   POPC    H5X   1587       0.09      1.008
  6264       HAL2    391   POPC    H5Y   1587       0.09      1.008
  6265       CTL2    391   POPC    C36   1588      -0.18     12.011
  6266       HAL2    391   POPC    H6X   1588       0.09      1.008
  6267       HAL2    391   POPC    H6Y   1588       0.09      1.008
  6268       CTL2    391   POPC    C37   1589      -0.18     12.011
  6269       HAL2    391   POPC    H7X   1589       0.09      1.008
  6270       HAL2    391   POPC    H7Y   1589       0.09      1.008
  6271       CTL2    391   POPC    C38   1590      -0.18     12.011
  6272       HAL2    391   POPC    H8X   1590       0.09      1.008
  6273       HAL2    391   POPC    H8Y   1590       0.09      1.008
  6274       CTL2    391   POPC    C39   1591      -0.18     12.011
  6275       HAL2    391   POPC    H9X   1591       0.09      1.008
  6276       HAL2    391   POPC    H9Y   1591       0.09      1.008
  6277       CTL2    391   POPC   C310   1592      -0.18     12.011
  6278       HAL2    391   POPC   H10X   1592       0.09      1.008
  6279       HAL2    391   POPC   H10Y   1592       0.09      1.008
  6280       CTL2    391   POPC   C311   1593      -0.18     12.011
  6281       HAL2    391   POPC   H11X   1593       0.09      1.008
  6282       HAL2    391   POPC   H11Y   1593       0.09      1.008
  6283       CTL2    391   POPC   C312   1594      -0.18     12.011
  6284       HAL2    391   POPC   H12X   1594       0.09      1.008
  6285       HAL2    391   POPC   H12Y   1594       0.09      1.008
  6286       CTL2    391   POPC   C313   1595      -0.18     12.011
  6287       HAL2    391   POPC   H13X   1595       0.09      1.008
  6288       HAL2    391   POPC   H13Y   1595       0.09      1.008
  6289       CTL2    391   POPC   C314   1596      -0.18     12.011
  6290       HAL2    391   POPC   H14X   1596       0.09      1.008
  6291       HAL2    391   POPC   H14Y   1596       0.09      1.008
  6292       CTL2    391   POPC   C315   1597      -0.18     12.011
  6293       HAL2    391   POPC   H15X   1597       0.09      1.008
  6294       HAL2    391   POPC   H15Y   1597       0.09      1.008
  6295       CTL3    391   POPC   C316   1598      -0.27     12.011
  6296       HAL3    391   POPC   H16X   1598       0.09      1.008
  6297       HAL3    391   POPC   H16Y   1598       0.09      1.008
  6298       HAL3    391   POPC   H16Z   1598       0.09      1.008   ; qtot 0
; residue 392 POPC rtp POPC q  0.0
  6299        NTL    392   POPC      N   1599       -0.6     14.007
  6300       CTL2    392   POPC    C12   1599       -0.1     12.011
  6301         HL    392   POPC   H12A   1599       0.25      1.008
  6302         HL    392   POPC   H12B   1599       0.25      1.008
  6303       CTL5    392   POPC    C13   1599      -0.35     12.011
  6304         HL    392   POPC   H13A   1599       0.25      1.008
  6305         HL    392   POPC   H13B   1599       0.25      1.008
  6306         HL    392   POPC   H13C   1599       0.25      1.008
  6307       CTL5    392   POPC    C14   1599      -0.35     12.011
  6308         HL    392   POPC   H14A   1599       0.25      1.008
  6309         HL    392   POPC   H14B   1599       0.25      1.008
  6310         HL    392   POPC   H14C   1599       0.25      1.008
  6311       CTL5    392   POPC    C15   1599      -0.35     12.011
  6312         HL    392   POPC   H15A   1599       0.25      1.008
  6313         HL    392   POPC   H15B   1599       0.25      1.008
  6314         HL    392   POPC   H15C   1599       0.25      1.008
  6315       CTL2    392   POPC    C11   1600      -0.08     12.011
  6316       HAL2    392   POPC   H11A   1600       0.09      1.008
  6317       HAL2    392   POPC   H11B   1600       0.09      1.008
  6318         PL    392   POPC      P   1600        1.5     30.974
  6319        O2L    392   POPC    O13   1600      -0.78    15.9994
  6320        O2L    392   POPC    O14   1600      -0.78    15.9994
  6321       OSLP    392   POPC    O12   1600      -0.57    15.9994
  6322       OSLP    392   POPC    O11   1600      -0.57    15.9994
  6323       CTL2    392   POPC     C1   1600      -0.08     12.011
  6324       HAL2    392   POPC     HA   1600       0.09      1.008
  6325       HAL2    392   POPC     HB   1600       0.09      1.008
  6326       CTL1    392   POPC     C2   1601       0.17     12.011
  6327       HAL1    392   POPC     HS   1601       0.09      1.008
  6328        OSL    392   POPC    O21   1601      -0.49    15.9994
  6329         CL    392   POPC    C21   1601        0.9     12.011
  6330        OBL    392   POPC    O22   1601      -0.63    15.9994
  6331       CTL2    392   POPC    C22   1601      -0.22     12.011
  6332       HAL2    392   POPC    H2R   1601       0.09      1.008
  6333       HAL2    392   POPC    H2S   1601       0.09      1.008
  6334       CTL2    392   POPC     C3   1602       0.08     12.011
  6335       HAL2    392   POPC     HX   1602       0.09      1.008
  6336       HAL2    392   POPC     HY   1602       0.09      1.008
  6337        OSL    392   POPC    O31   1602      -0.49    15.9994
  6338         CL    392   POPC    C31   1602        0.9     12.011
  6339        OBL    392   POPC    O32   1602      -0.63    15.9994
  6340       CTL2    392   POPC    C32   1602      -0.22     12.011
  6341       HAL2    392   POPC    H2X   1602       0.09      1.008
  6342       HAL2    392   POPC    H2Y   1602       0.09      1.008
  6343       CTL2    392   POPC    C23   1603      -0.18     12.011
  6344       HAL2    392   POPC    H3R   1603       0.09      1.008
  6345       HAL2    392   POPC    H3S   1603       0.09      1.008
  6346       CTL2    392   POPC    C24   1604      -0.18     12.011
  6347       HAL2    392   POPC    H4R   1604       0.09      1.008
  6348       HAL2    392   POPC    H4S   1604       0.09      1.008
  6349       CTL2    392   POPC    C25   1605      -0.18     12.011
  6350       HAL2    392   POPC    H5R   1605       0.09      1.008
  6351       HAL2    392   POPC    H5S   1605       0.09      1.008
  6352       CTL2    392   POPC    C26   1606      -0.18     12.011
  6353       HAL2    392   POPC    H6R   1606       0.09      1.008
  6354       HAL2    392   POPC    H6S   1606       0.09      1.008
  6355       CTL2    392   POPC    C27   1607      -0.18     12.011
  6356       HAL2    392   POPC    H7R   1607       0.09      1.008
  6357       HAL2    392   POPC    H7S   1607       0.09      1.008
  6358       CTL2    392   POPC    C28   1608      -0.18     12.011
  6359       HAL2    392   POPC    H8R   1608       0.09      1.008
  6360       HAL2    392   POPC    H8S   1608       0.09      1.008
  6361       CEL1    392   POPC    C29   1609      -0.15     12.011
  6362       HEL1    392   POPC    H91   1609       0.15      1.008
  6363       CEL1    392   POPC   C210   1610      -0.15     12.011
  6364       HEL1    392   POPC   H101   1610       0.15      1.008
  6365       CTL2    392   POPC   C211   1611      -0.18     12.011
  6366       HAL2    392   POPC   H11R   1611       0.09      1.008
  6367       HAL2    392   POPC   H11S   1611       0.09      1.008
  6368       CTL2    392   POPC   C212   1612      -0.18     12.011
  6369       HAL2    392   POPC   H12R   1612       0.09      1.008
  6370       HAL2    392   POPC   H12S   1612       0.09      1.008
  6371       CTL2    392   POPC   C213   1613      -0.18     12.011
  6372       HAL2    392   POPC   H13R   1613       0.09      1.008
  6373       HAL2    392   POPC   H13S   1613       0.09      1.008
  6374       CTL2    392   POPC   C214   1614      -0.18     12.011
  6375       HAL2    392   POPC   H14R   1614       0.09      1.008
  6376       HAL2    392   POPC   H14S   1614       0.09      1.008
  6377       CTL2    392   POPC   C215   1615      -0.18     12.011
  6378       HAL2    392   POPC   H15R   1615       0.09      1.008
  6379       HAL2    392   POPC   H15S   1615       0.09      1.008
  6380       CTL2    392   POPC   C216   1616      -0.18     12.011
  6381       HAL2    392   POPC   H16R   1616       0.09      1.008
  6382       HAL2    392   POPC   H16S   1616       0.09      1.008
  6383       CTL2    392   POPC   C217   1617      -0.18     12.011
  6384       HAL2    392   POPC   H17R   1617       0.09      1.008
  6385       HAL2    392   POPC   H17S   1617       0.09      1.008
  6386       CTL3    392   POPC   C218   1618      -0.27     12.011
  6387       HAL3    392   POPC   H18R   1618       0.09      1.008
  6388       HAL3    392   POPC   H18S   1618       0.09      1.008
  6389       HAL3    392   POPC   H18T   1618       0.09      1.008
  6390       CTL2    392   POPC    C33   1619      -0.18     12.011
  6391       HAL2    392   POPC    H3X   1619       0.09      1.008
  6392       HAL2    392   POPC    H3Y   1619       0.09      1.008
  6393       CTL2    392   POPC    C34   1620      -0.18     12.011
  6394       HAL2    392   POPC    H4X   1620       0.09      1.008
  6395       HAL2    392   POPC    H4Y   1620       0.09      1.008
  6396       CTL2    392   POPC    C35   1621      -0.18     12.011
  6397       HAL2    392   POPC    H5X   1621       0.09      1.008
  6398       HAL2    392   POPC    H5Y   1621       0.09      1.008
  6399       CTL2    392   POPC    C36   1622      -0.18     12.011
  6400       HAL2    392   POPC    H6X   1622       0.09      1.008
  6401       HAL2    392   POPC    H6Y   1622       0.09      1.008
  6402       CTL2    392   POPC    C37   1623      -0.18     12.011
  6403       HAL2    392   POPC    H7X   1623       0.09      1.008
  6404       HAL2    392   POPC    H7Y   1623       0.09      1.008
  6405       CTL2    392   POPC    C38   1624      -0.18     12.011
  6406       HAL2    392   POPC    H8X   1624       0.09      1.008
  6407       HAL2    392   POPC    H8Y   1624       0.09      1.008
  6408       CTL2    392   POPC    C39   1625      -0.18     12.011
  6409       HAL2    392   POPC    H9X   1625       0.09      1.008
  6410       HAL2    392   POPC    H9Y   1625       0.09      1.008
  6411       CTL2    392   POPC   C310   1626      -0.18     12.011
  6412       HAL2    392   POPC   H10X   1626       0.09      1.008
  6413       HAL2    392   POPC   H10Y   1626       0.09      1.008
  6414       CTL2    392   POPC   C311   1627      -0.18     12.011
  6415       HAL2    392   POPC   H11X   1627       0.09      1.008
  6416       HAL2    392   POPC   H11Y   1627       0.09      1.008
  6417       CTL2    392   POPC   C312   1628      -0.18     12.011
  6418       HAL2    392   POPC   H12X   1628       0.09      1.008
  6419       HAL2    392   POPC   H12Y   1628       0.09      1.008
  6420       CTL2    392   POPC   C313   1629      -0.18     12.011
  6421       HAL2    392   POPC   H13X   1629       0.09      1.008
  6422       HAL2    392   POPC   H13Y   1629       0.09      1.008
  6423       CTL2    392   POPC   C314   1630      -0.18     12.011
  6424       HAL2    392   POPC   H14X   1630       0.09      1.008
  6425       HAL2    392   POPC   H14Y   1630       0.09      1.008
  6426       CTL2    392   POPC   C315   1631      -0.18     12.011
  6427       HAL2    392   POPC   H15X   1631       0.09      1.008
  6428       HAL2    392   POPC   H15Y   1631       0.09      1.008
  6429       CTL3    392   POPC   C316   1632      -0.27     12.011
  6430       HAL3    392   POPC   H16X   1632       0.09      1.008
  6431       HAL3    392   POPC   H16Y   1632       0.09      1.008
  6432       HAL3    392   POPC   H16Z   1632       0.09      1.008   ; qtot 0
; residue 393 POPC rtp POPC q  0.0
  6433        NTL    393   POPC      N   1633       -0.6     14.007
  6434       CTL2    393   POPC    C12   1633       -0.1     12.011
  6435         HL    393   POPC   H12A   1633       0.25      1.008
  6436         HL    393   POPC   H12B   1633       0.25      1.008
  6437       CTL5    393   POPC    C13   1633      -0.35     12.011
  6438         HL    393   POPC   H13A   1633       0.25      1.008
  6439         HL    393   POPC   H13B   1633       0.25      1.008
  6440         HL    393   POPC   H13C   1633       0.25      1.008
  6441       CTL5    393   POPC    C14   1633      -0.35     12.011
  6442         HL    393   POPC   H14A   1633       0.25      1.008
  6443         HL    393   POPC   H14B   1633       0.25      1.008
  6444         HL    393   POPC   H14C   1633       0.25      1.008
  6445       CTL5    393   POPC    C15   1633      -0.35     12.011
  6446         HL    393   POPC   H15A   1633       0.25      1.008
  6447         HL    393   POPC   H15B   1633       0.25      1.008
  6448         HL    393   POPC   H15C   1633       0.25      1.008
  6449       CTL2    393   POPC    C11   1634      -0.08     12.011
  6450       HAL2    393   POPC   H11A   1634       0.09      1.008
  6451       HAL2    393   POPC   H11B   1634       0.09      1.008
  6452         PL    393   POPC      P   1634        1.5     30.974
  6453        O2L    393   POPC    O13   1634      -0.78    15.9994
  6454        O2L    393   POPC    O14   1634      -0.78    15.9994
  6455       OSLP    393   POPC    O12   1634      -0.57    15.9994
  6456       OSLP    393   POPC    O11   1634      -0.57    15.9994
  6457       CTL2    393   POPC     C1   1634      -0.08     12.011
  6458       HAL2    393   POPC     HA   1634       0.09      1.008
  6459       HAL2    393   POPC     HB   1634       0.09      1.008
  6460       CTL1    393   POPC     C2   1635       0.17     12.011
  6461       HAL1    393   POPC     HS   1635       0.09      1.008
  6462        OSL    393   POPC    O21   1635      -0.49    15.9994
  6463         CL    393   POPC    C21   1635        0.9     12.011
  6464        OBL    393   POPC    O22   1635      -0.63    15.9994
  6465       CTL2    393   POPC    C22   1635      -0.22     12.011
  6466       HAL2    393   POPC    H2R   1635       0.09      1.008
  6467       HAL2    393   POPC    H2S   1635       0.09      1.008
  6468       CTL2    393   POPC     C3   1636       0.08     12.011
  6469       HAL2    393   POPC     HX   1636       0.09      1.008
  6470       HAL2    393   POPC     HY   1636       0.09      1.008
  6471        OSL    393   POPC    O31   1636      -0.49    15.9994
  6472         CL    393   POPC    C31   1636        0.9     12.011
  6473        OBL    393   POPC    O32   1636      -0.63    15.9994
  6474       CTL2    393   POPC    C32   1636      -0.22     12.011
  6475       HAL2    393   POPC    H2X   1636       0.09      1.008
  6476       HAL2    393   POPC    H2Y   1636       0.09      1.008
  6477       CTL2    393   POPC    C23   1637      -0.18     12.011
  6478       HAL2    393   POPC    H3R   1637       0.09      1.008
  6479       HAL2    393   POPC    H3S   1637       0.09      1.008
  6480       CTL2    393   POPC    C24   1638      -0.18     12.011
  6481       HAL2    393   POPC    H4R   1638       0.09      1.008
  6482       HAL2    393   POPC    H4S   1638       0.09      1.008
  6483       CTL2    393   POPC    C25   1639      -0.18     12.011
  6484       HAL2    393   POPC    H5R   1639       0.09      1.008
  6485       HAL2    393   POPC    H5S   1639       0.09      1.008
  6486       CTL2    393   POPC    C26   1640      -0.18     12.011
  6487       HAL2    393   POPC    H6R   1640       0.09      1.008
  6488       HAL2    393   POPC    H6S   1640       0.09      1.008
  6489       CTL2    393   POPC    C27   1641      -0.18     12.011
  6490       HAL2    393   POPC    H7R   1641       0.09      1.008
  6491       HAL2    393   POPC    H7S   1641       0.09      1.008
  6492       CTL2    393   POPC    C28   1642      -0.18     12.011
  6493       HAL2    393   POPC    H8R   1642       0.09      1.008
  6494       HAL2    393   POPC    H8S   1642       0.09      1.008
  6495       CEL1    393   POPC    C29   1643      -0.15     12.011
  6496       HEL1    393   POPC    H91   1643       0.15      1.008
  6497       CEL1    393   POPC   C210   1644      -0.15     12.011
  6498       HEL1    393   POPC   H101   1644       0.15      1.008
  6499       CTL2    393   POPC   C211   1645      -0.18     12.011
  6500       HAL2    393   POPC   H11R   1645       0.09      1.008
  6501       HAL2    393   POPC   H11S   1645       0.09      1.008
  6502       CTL2    393   POPC   C212   1646      -0.18     12.011
  6503       HAL2    393   POPC   H12R   1646       0.09      1.008
  6504       HAL2    393   POPC   H12S   1646       0.09      1.008
  6505       CTL2    393   POPC   C213   1647      -0.18     12.011
  6506       HAL2    393   POPC   H13R   1647       0.09      1.008
  6507       HAL2    393   POPC   H13S   1647       0.09      1.008
  6508       CTL2    393   POPC   C214   1648      -0.18     12.011
  6509       HAL2    393   POPC   H14R   1648       0.09      1.008
  6510       HAL2    393   POPC   H14S   1648       0.09      1.008
  6511       CTL2    393   POPC   C215   1649      -0.18     12.011
  6512       HAL2    393   POPC   H15R   1649       0.09      1.008
  6513       HAL2    393   POPC   H15S   1649       0.09      1.008
  6514       CTL2    393   POPC   C216   1650      -0.18     12.011
  6515       HAL2    393   POPC   H16R   1650       0.09      1.008
  6516       HAL2    393   POPC   H16S   1650       0.09      1.008
  6517       CTL2    393   POPC   C217   1651      -0.18     12.011
  6518       HAL2    393   POPC   H17R   1651       0.09      1.008
  6519       HAL2    393   POPC   H17S   1651       0.09      1.008
  6520       CTL3    393   POPC   C218   1652      -0.27     12.011
  6521       HAL3    393   POPC   H18R   1652       0.09      1.008
  6522       HAL3    393   POPC   H18S   1652       0.09      1.008
  6523       HAL3    393   POPC   H18T   1652       0.09      1.008
  6524       CTL2    393   POPC    C33   1653      -0.18     12.011
  6525       HAL2    393   POPC    H3X   1653       0.09      1.008
  6526       HAL2    393   POPC    H3Y   1653       0.09      1.008
  6527       CTL2    393   POPC    C34   1654      -0.18     12.011
  6528       HAL2    393   POPC    H4X   1654       0.09      1.008
  6529       HAL2    393   POPC    H4Y   1654       0.09      1.008
  6530       CTL2    393   POPC    C35   1655      -0.18     12.011
  6531       HAL2    393   POPC    H5X   1655       0.09      1.008
  6532       HAL2    393   POPC    H5Y   1655       0.09      1.008
  6533       CTL2    393   POPC    C36   1656      -0.18     12.011
  6534       HAL2    393   POPC    H6X   1656       0.09      1.008
  6535       HAL2    393   POPC    H6Y   1656       0.09      1.008
  6536       CTL2    393   POPC    C37   1657      -0.18     12.011
  6537       HAL2    393   POPC    H7X   1657       0.09      1.008
  6538       HAL2    393   POPC    H7Y   1657       0.09      1.008
  6539       CTL2    393   POPC    C38   1658      -0.18     12.011
  6540       HAL2    393   POPC    H8X   1658       0.09      1.008
  6541       HAL2    393   POPC    H8Y   1658       0.09      1.008
  6542       CTL2    393   POPC    C39   1659      -0.18     12.011
  6543       HAL2    393   POPC    H9X   1659       0.09      1.008
  6544       HAL2    393   POPC    H9Y   1659       0.09      1.008
  6545       CTL2    393   POPC   C310   1660      -0.18     12.011
  6546       HAL2    393   POPC   H10X   1660       0.09      1.008
  6547       HAL2    393   POPC   H10Y   1660       0.09      1.008
  6548       CTL2    393   POPC   C311   1661      -0.18     12.011
  6549       HAL2    393   POPC   H11X   1661       0.09      1.008
  6550       HAL2    393   POPC   H11Y   1661       0.09      1.008
  6551       CTL2    393   POPC   C312   1662      -0.18     12.011
  6552       HAL2    393   POPC   H12X   1662       0.09      1.008
  6553       HAL2    393   POPC   H12Y   1662       0.09      1.008
  6554       CTL2    393   POPC   C313   1663      -0.18     12.011
  6555       HAL2    393   POPC   H13X   1663       0.09      1.008
  6556       HAL2    393   POPC   H13Y   1663       0.09      1.008
  6557       CTL2    393   POPC   C314   1664      -0.18     12.011
  6558       HAL2    393   POPC   H14X   1664       0.09      1.008
  6559       HAL2    393   POPC   H14Y   1664       0.09      1.008
  6560       CTL2    393   POPC   C315   1665      -0.18     12.011
  6561       HAL2    393   POPC   H15X   1665       0.09      1.008
  6562       HAL2    393   POPC   H15Y   1665       0.09      1.008
  6563       CTL3    393   POPC   C316   1666      -0.27     12.011
  6564       HAL3    393   POPC   H16X   1666       0.09      1.008
  6565       HAL3    393   POPC   H16Y   1666       0.09      1.008
  6566       HAL3    393   POPC   H16Z   1666       0.09      1.008   ; qtot 0
; residue 394 POPC rtp POPC q  0.0
  6567        NTL    394   POPC      N   1667       -0.6     14.007
  6568       CTL2    394   POPC    C12   1667       -0.1     12.011
  6569         HL    394   POPC   H12A   1667       0.25      1.008
  6570         HL    394   POPC   H12B   1667       0.25      1.008
  6571       CTL5    394   POPC    C13   1667      -0.35     12.011
  6572         HL    394   POPC   H13A   1667       0.25      1.008
  6573         HL    394   POPC   H13B   1667       0.25      1.008
  6574         HL    394   POPC   H13C   1667       0.25      1.008
  6575       CTL5    394   POPC    C14   1667      -0.35     12.011
  6576         HL    394   POPC   H14A   1667       0.25      1.008
  6577         HL    394   POPC   H14B   1667       0.25      1.008
  6578         HL    394   POPC   H14C   1667       0.25      1.008
  6579       CTL5    394   POPC    C15   1667      -0.35     12.011
  6580         HL    394   POPC   H15A   1667       0.25      1.008
  6581         HL    394   POPC   H15B   1667       0.25      1.008
  6582         HL    394   POPC   H15C   1667       0.25      1.008
  6583       CTL2    394   POPC    C11   1668      -0.08     12.011
  6584       HAL2    394   POPC   H11A   1668       0.09      1.008
  6585       HAL2    394   POPC   H11B   1668       0.09      1.008
  6586         PL    394   POPC      P   1668        1.5     30.974
  6587        O2L    394   POPC    O13   1668      -0.78    15.9994
  6588        O2L    394   POPC    O14   1668      -0.78    15.9994
  6589       OSLP    394   POPC    O12   1668      -0.57    15.9994
  6590       OSLP    394   POPC    O11   1668      -0.57    15.9994
  6591       CTL2    394   POPC     C1   1668      -0.08     12.011
  6592       HAL2    394   POPC     HA   1668       0.09      1.008
  6593       HAL2    394   POPC     HB   1668       0.09      1.008
  6594       CTL1    394   POPC     C2   1669       0.17     12.011
  6595       HAL1    394   POPC     HS   1669       0.09      1.008
  6596        OSL    394   POPC    O21   1669      -0.49    15.9994
  6597         CL    394   POPC    C21   1669        0.9     12.011
  6598        OBL    394   POPC    O22   1669      -0.63    15.9994
  6599       CTL2    394   POPC    C22   1669      -0.22     12.011
  6600       HAL2    394   POPC    H2R   1669       0.09      1.008
  6601       HAL2    394   POPC    H2S   1669       0.09      1.008
  6602       CTL2    394   POPC     C3   1670       0.08     12.011
  6603       HAL2    394   POPC     HX   1670       0.09      1.008
  6604       HAL2    394   POPC     HY   1670       0.09      1.008
  6605        OSL    394   POPC    O31   1670      -0.49    15.9994
  6606         CL    394   POPC    C31   1670        0.9     12.011
  6607        OBL    394   POPC    O32   1670      -0.63    15.9994
  6608       CTL2    394   POPC    C32   1670      -0.22     12.011
  6609       HAL2    394   POPC    H2X   1670       0.09      1.008
  6610       HAL2    394   POPC    H2Y   1670       0.09      1.008
  6611       CTL2    394   POPC    C23   1671      -0.18     12.011
  6612       HAL2    394   POPC    H3R   1671       0.09      1.008
  6613       HAL2    394   POPC    H3S   1671       0.09      1.008
  6614       CTL2    394   POPC    C24   1672      -0.18     12.011
  6615       HAL2    394   POPC    H4R   1672       0.09      1.008
  6616       HAL2    394   POPC    H4S   1672       0.09      1.008
  6617       CTL2    394   POPC    C25   1673      -0.18     12.011
  6618       HAL2    394   POPC    H5R   1673       0.09      1.008
  6619       HAL2    394   POPC    H5S   1673       0.09      1.008
  6620       CTL2    394   POPC    C26   1674      -0.18     12.011
  6621       HAL2    394   POPC    H6R   1674       0.09      1.008
  6622       HAL2    394   POPC    H6S   1674       0.09      1.008
  6623       CTL2    394   POPC    C27   1675      -0.18     12.011
  6624       HAL2    394   POPC    H7R   1675       0.09      1.008
  6625       HAL2    394   POPC    H7S   1675       0.09      1.008
  6626       CTL2    394   POPC    C28   1676      -0.18     12.011
  6627       HAL2    394   POPC    H8R   1676       0.09      1.008
  6628       HAL2    394   POPC    H8S   1676       0.09      1.008
  6629       CEL1    394   POPC    C29   1677      -0.15     12.011
  6630       HEL1    394   POPC    H91   1677       0.15      1.008
  6631       CEL1    394   POPC   C210   1678      -0.15     12.011
  6632       HEL1    394   POPC   H101   1678       0.15      1.008
  6633       CTL2    394   POPC   C211   1679      -0.18     12.011
  6634       HAL2    394   POPC   H11R   1679       0.09      1.008
  6635       HAL2    394   POPC   H11S   1679       0.09      1.008
  6636       CTL2    394   POPC   C212   1680      -0.18     12.011
  6637       HAL2    394   POPC   H12R   1680       0.09      1.008
  6638       HAL2    394   POPC   H12S   1680       0.09      1.008
  6639       CTL2    394   POPC   C213   1681      -0.18     12.011
  6640       HAL2    394   POPC   H13R   1681       0.09      1.008
  6641       HAL2    394   POPC   H13S   1681       0.09      1.008
  6642       CTL2    394   POPC   C214   1682      -0.18     12.011
  6643       HAL2    394   POPC   H14R   1682       0.09      1.008
  6644       HAL2    394   POPC   H14S   1682       0.09      1.008
  6645       CTL2    394   POPC   C215   1683      -0.18     12.011
  6646       HAL2    394   POPC   H15R   1683       0.09      1.008
  6647       HAL2    394   POPC   H15S   1683       0.09      1.008
  6648       CTL2    394   POPC   C216   1684      -0.18     12.011
  6649       HAL2    394   POPC   H16R   1684       0.09      1.008
  6650       HAL2    394   POPC   H16S   1684       0.09      1.008
  6651       CTL2    394   POPC   C217   1685      -0.18     12.011
  6652       HAL2    394   POPC   H17R   1685       0.09      1.008
  6653       HAL2    394   POPC   H17S   1685       0.09      1.008
  6654       CTL3    394   POPC   C218   1686      -0.27     12.011
  6655       HAL3    394   POPC   H18R   1686       0.09      1.008
  6656       HAL3    394   POPC   H18S   1686       0.09      1.008
  6657       HAL3    394   POPC   H18T   1686       0.09      1.008
  6658       CTL2    394   POPC    C33   1687      -0.18     12.011
  6659       HAL2    394   POPC    H3X   1687       0.09      1.008
  6660       HAL2    394   POPC    H3Y   1687       0.09      1.008
  6661       CTL2    394   POPC    C34   1688      -0.18     12.011
  6662       HAL2    394   POPC    H4X   1688       0.09      1.008
  6663       HAL2    394   POPC    H4Y   1688       0.09      1.008
  6664       CTL2    394   POPC    C35   1689      -0.18     12.011
  6665       HAL2    394   POPC    H5X   1689       0.09      1.008
  6666       HAL2    394   POPC    H5Y   1689       0.09      1.008
  6667       CTL2    394   POPC    C36   1690      -0.18     12.011
  6668       HAL2    394   POPC    H6X   1690       0.09      1.008
  6669       HAL2    394   POPC    H6Y   1690       0.09      1.008
  6670       CTL2    394   POPC    C37   1691      -0.18     12.011
  6671       HAL2    394   POPC    H7X   1691       0.09      1.008
  6672       HAL2    394   POPC    H7Y   1691       0.09      1.008
  6673       CTL2    394   POPC    C38   1692      -0.18     12.011
  6674       HAL2    394   POPC    H8X   1692       0.09      1.008
  6675       HAL2    394   POPC    H8Y   1692       0.09      1.008
  6676       CTL2    394   POPC    C39   1693      -0.18     12.011
  6677       HAL2    394   POPC    H9X   1693       0.09      1.008
  6678       HAL2    394   POPC    H9Y   1693       0.09      1.008
  6679       CTL2    394   POPC   C310   1694      -0.18     12.011
  6680       HAL2    394   POPC   H10X   1694       0.09      1.008
  6681       HAL2    394   POPC   H10Y   1694       0.09      1.008
  6682       CTL2    394   POPC   C311   1695      -0.18     12.011
  6683       HAL2    394   POPC   H11X   1695       0.09      1.008
  6684       HAL2    394   POPC   H11Y   1695       0.09      1.008
  6685       CTL2    394   POPC   C312   1696      -0.18     12.011
  6686       HAL2    394   POPC   H12X   1696       0.09      1.008
  6687       HAL2    394   POPC   H12Y   1696       0.09      1.008
  6688       CTL2    394   POPC   C313   1697      -0.18     12.011
  6689       HAL2    394   POPC   H13X   1697       0.09      1.008
  6690       HAL2    394   POPC   H13Y   1697       0.09      1.008
  6691       CTL2    394   POPC   C314   1698      -0.18     12.011
  6692       HAL2    394   POPC   H14X   1698       0.09      1.008
  6693       HAL2    394   POPC   H14Y   1698       0.09      1.008
  6694       CTL2    394   POPC   C315   1699      -0.18     12.011
  6695       HAL2    394   POPC   H15X   1699       0.09      1.008
  6696       HAL2    394   POPC   H15Y   1699       0.09      1.008
  6697       CTL3    394   POPC   C316   1700      -0.27     12.011
  6698       HAL3    394   POPC   H16X   1700       0.09      1.008
  6699       HAL3    394   POPC   H16Y   1700       0.09      1.008
  6700       HAL3    394   POPC   H16Z   1700       0.09      1.008   ; qtot 0
; residue 395 POPC rtp POPC q  0.0
  6701        NTL    395   POPC      N   1701       -0.6     14.007
  6702       CTL2    395   POPC    C12   1701       -0.1     12.011
  6703         HL    395   POPC   H12A   1701       0.25      1.008
  6704         HL    395   POPC   H12B   1701       0.25      1.008
  6705       CTL5    395   POPC    C13   1701      -0.35     12.011
  6706         HL    395   POPC   H13A   1701       0.25      1.008
  6707         HL    395   POPC   H13B   1701       0.25      1.008
  6708         HL    395   POPC   H13C   1701       0.25      1.008
  6709       CTL5    395   POPC    C14   1701      -0.35     12.011
  6710         HL    395   POPC   H14A   1701       0.25      1.008
  6711         HL    395   POPC   H14B   1701       0.25      1.008
  6712         HL    395   POPC   H14C   1701       0.25      1.008
  6713       CTL5    395   POPC    C15   1701      -0.35     12.011
  6714         HL    395   POPC   H15A   1701       0.25      1.008
  6715         HL    395   POPC   H15B   1701       0.25      1.008
  6716         HL    395   POPC   H15C   1701       0.25      1.008
  6717       CTL2    395   POPC    C11   1702      -0.08     12.011
  6718       HAL2    395   POPC   H11A   1702       0.09      1.008
  6719       HAL2    395   POPC   H11B   1702       0.09      1.008
  6720         PL    395   POPC      P   1702        1.5     30.974
  6721        O2L    395   POPC    O13   1702      -0.78    15.9994
  6722        O2L    395   POPC    O14   1702      -0.78    15.9994
  6723       OSLP    395   POPC    O12   1702      -0.57    15.9994
  6724       OSLP    395   POPC    O11   1702      -0.57    15.9994
  6725       CTL2    395   POPC     C1   1702      -0.08     12.011
  6726       HAL2    395   POPC     HA   1702       0.09      1.008
  6727       HAL2    395   POPC     HB   1702       0.09      1.008
  6728       CTL1    395   POPC     C2   1703       0.17     12.011
  6729       HAL1    395   POPC     HS   1703       0.09      1.008
  6730        OSL    395   POPC    O21   1703      -0.49    15.9994
  6731         CL    395   POPC    C21   1703        0.9     12.011
  6732        OBL    395   POPC    O22   1703      -0.63    15.9994
  6733       CTL2    395   POPC    C22   1703      -0.22     12.011
  6734       HAL2    395   POPC    H2R   1703       0.09      1.008
  6735       HAL2    395   POPC    H2S   1703       0.09      1.008
  6736       CTL2    395   POPC     C3   1704       0.08     12.011
  6737       HAL2    395   POPC     HX   1704       0.09      1.008
  6738       HAL2    395   POPC     HY   1704       0.09      1.008
  6739        OSL    395   POPC    O31   1704      -0.49    15.9994
  6740         CL    395   POPC    C31   1704        0.9     12.011
  6741        OBL    395   POPC    O32   1704      -0.63    15.9994
  6742       CTL2    395   POPC    C32   1704      -0.22     12.011
  6743       HAL2    395   POPC    H2X   1704       0.09      1.008
  6744       HAL2    395   POPC    H2Y   1704       0.09      1.008
  6745       CTL2    395   POPC    C23   1705      -0.18     12.011
  6746       HAL2    395   POPC    H3R   1705       0.09      1.008
  6747       HAL2    395   POPC    H3S   1705       0.09      1.008
  6748       CTL2    395   POPC    C24   1706      -0.18     12.011
  6749       HAL2    395   POPC    H4R   1706       0.09      1.008
  6750       HAL2    395   POPC    H4S   1706       0.09      1.008
  6751       CTL2    395   POPC    C25   1707      -0.18     12.011
  6752       HAL2    395   POPC    H5R   1707       0.09      1.008
  6753       HAL2    395   POPC    H5S   1707       0.09      1.008
  6754       CTL2    395   POPC    C26   1708      -0.18     12.011
  6755       HAL2    395   POPC    H6R   1708       0.09      1.008
  6756       HAL2    395   POPC    H6S   1708       0.09      1.008
  6757       CTL2    395   POPC    C27   1709      -0.18     12.011
  6758       HAL2    395   POPC    H7R   1709       0.09      1.008
  6759       HAL2    395   POPC    H7S   1709       0.09      1.008
  6760       CTL2    395   POPC    C28   1710      -0.18     12.011
  6761       HAL2    395   POPC    H8R   1710       0.09      1.008
  6762       HAL2    395   POPC    H8S   1710       0.09      1.008
  6763       CEL1    395   POPC    C29   1711      -0.15     12.011
  6764       HEL1    395   POPC    H91   1711       0.15      1.008
  6765       CEL1    395   POPC   C210   1712      -0.15     12.011
  6766       HEL1    395   POPC   H101   1712       0.15      1.008
  6767       CTL2    395   POPC   C211   1713      -0.18     12.011
  6768       HAL2    395   POPC   H11R   1713       0.09      1.008
  6769       HAL2    395   POPC   H11S   1713       0.09      1.008
  6770       CTL2    395   POPC   C212   1714      -0.18     12.011
  6771       HAL2    395   POPC   H12R   1714       0.09      1.008
  6772       HAL2    395   POPC   H12S   1714       0.09      1.008
  6773       CTL2    395   POPC   C213   1715      -0.18     12.011
  6774       HAL2    395   POPC   H13R   1715       0.09      1.008
  6775       HAL2    395   POPC   H13S   1715       0.09      1.008
  6776       CTL2    395   POPC   C214   1716      -0.18     12.011
  6777       HAL2    395   POPC   H14R   1716       0.09      1.008
  6778       HAL2    395   POPC   H14S   1716       0.09      1.008
  6779       CTL2    395   POPC   C215   1717      -0.18     12.011
  6780       HAL2    395   POPC   H15R   1717       0.09      1.008
  6781       HAL2    395   POPC   H15S   1717       0.09      1.008
  6782       CTL2    395   POPC   C216   1718      -0.18     12.011
  6783       HAL2    395   POPC   H16R   1718       0.09      1.008
  6784       HAL2    395   POPC   H16S   1718       0.09      1.008
  6785       CTL2    395   POPC   C217   1719      -0.18     12.011
  6786       HAL2    395   POPC   H17R   1719       0.09      1.008
  6787       HAL2    395   POPC   H17S   1719       0.09      1.008
  6788       CTL3    395   POPC   C218   1720      -0.27     12.011
  6789       HAL3    395   POPC   H18R   1720       0.09      1.008
  6790       HAL3    395   POPC   H18S   1720       0.09      1.008
  6791       HAL3    395   POPC   H18T   1720       0.09      1.008
  6792       CTL2    395   POPC    C33   1721      -0.18     12.011
  6793       HAL2    395   POPC    H3X   1721       0.09      1.008
  6794       HAL2    395   POPC    H3Y   1721       0.09      1.008
  6795       CTL2    395   POPC    C34   1722      -0.18     12.011
  6796       HAL2    395   POPC    H4X   1722       0.09      1.008
  6797       HAL2    395   POPC    H4Y   1722       0.09      1.008
  6798       CTL2    395   POPC    C35   1723      -0.18     12.011
  6799       HAL2    395   POPC    H5X   1723       0.09      1.008
  6800       HAL2    395   POPC    H5Y   1723       0.09      1.008
  6801       CTL2    395   POPC    C36   1724      -0.18     12.011
  6802       HAL2    395   POPC    H6X   1724       0.09      1.008
  6803       HAL2    395   POPC    H6Y   1724       0.09      1.008
  6804       CTL2    395   POPC    C37   1725      -0.18     12.011
  6805       HAL2    395   POPC    H7X   1725       0.09      1.008
  6806       HAL2    395   POPC    H7Y   1725       0.09      1.008
  6807       CTL2    395   POPC    C38   1726      -0.18     12.011
  6808       HAL2    395   POPC    H8X   1726       0.09      1.008
  6809       HAL2    395   POPC    H8Y   1726       0.09      1.008
  6810       CTL2    395   POPC    C39   1727      -0.18     12.011
  6811       HAL2    395   POPC    H9X   1727       0.09      1.008
  6812       HAL2    395   POPC    H9Y   1727       0.09      1.008
  6813       CTL2    395   POPC   C310   1728      -0.18     12.011
  6814       HAL2    395   POPC   H10X   1728       0.09      1.008
  6815       HAL2    395   POPC   H10Y   1728       0.09      1.008
  6816       CTL2    395   POPC   C311   1729      -0.18     12.011
  6817       HAL2    395   POPC   H11X   1729       0.09      1.008
  6818       HAL2    395   POPC   H11Y   1729       0.09      1.008
  6819       CTL2    395   POPC   C312   1730      -0.18     12.011
  6820       HAL2    395   POPC   H12X   1730       0.09      1.008
  6821       HAL2    395   POPC   H12Y   1730       0.09      1.008
  6822       CTL2    395   POPC   C313   1731      -0.18     12.011
  6823       HAL2    395   POPC   H13X   1731       0.09      1.008
  6824       HAL2    395   POPC   H13Y   1731       0.09      1.008
  6825       CTL2    395   POPC   C314   1732      -0.18     12.011
  6826       HAL2    395   POPC   H14X   1732       0.09      1.008
  6827       HAL2    395   POPC   H14Y   1732       0.09      1.008
  6828       CTL2    395   POPC   C315   1733      -0.18     12.011
  6829       HAL2    395   POPC   H15X   1733       0.09      1.008
  6830       HAL2    395   POPC   H15Y   1733       0.09      1.008
  6831       CTL3    395   POPC   C316   1734      -0.27     12.011
  6832       HAL3    395   POPC   H16X   1734       0.09      1.008
  6833       HAL3    395   POPC   H16Y   1734       0.09      1.008
  6834       HAL3    395   POPC   H16Z   1734       0.09      1.008   ; qtot 0
; residue 396 POPC rtp POPC q  0.0
  6835        NTL    396   POPC      N   1735       -0.6     14.007
  6836       CTL2    396   POPC    C12   1735       -0.1     12.011
  6837         HL    396   POPC   H12A   1735       0.25      1.008
  6838         HL    396   POPC   H12B   1735       0.25      1.008
  6839       CTL5    396   POPC    C13   1735      -0.35     12.011
  6840         HL    396   POPC   H13A   1735       0.25      1.008
  6841         HL    396   POPC   H13B   1735       0.25      1.008
  6842         HL    396   POPC   H13C   1735       0.25      1.008
  6843       CTL5    396   POPC    C14   1735      -0.35     12.011
  6844         HL    396   POPC   H14A   1735       0.25      1.008
  6845         HL    396   POPC   H14B   1735       0.25      1.008
  6846         HL    396   POPC   H14C   1735       0.25      1.008
  6847       CTL5    396   POPC    C15   1735      -0.35     12.011
  6848         HL    396   POPC   H15A   1735       0.25      1.008
  6849         HL    396   POPC   H15B   1735       0.25      1.008
  6850         HL    396   POPC   H15C   1735       0.25      1.008
  6851       CTL2    396   POPC    C11   1736      -0.08     12.011
  6852       HAL2    396   POPC   H11A   1736       0.09      1.008
  6853       HAL2    396   POPC   H11B   1736       0.09      1.008
  6854         PL    396   POPC      P   1736        1.5     30.974
  6855        O2L    396   POPC    O13   1736      -0.78    15.9994
  6856        O2L    396   POPC    O14   1736      -0.78    15.9994
  6857       OSLP    396   POPC    O12   1736      -0.57    15.9994
  6858       OSLP    396   POPC    O11   1736      -0.57    15.9994
  6859       CTL2    396   POPC     C1   1736      -0.08     12.011
  6860       HAL2    396   POPC     HA   1736       0.09      1.008
  6861       HAL2    396   POPC     HB   1736       0.09      1.008
  6862       CTL1    396   POPC     C2   1737       0.17     12.011
  6863       HAL1    396   POPC     HS   1737       0.09      1.008
  6864        OSL    396   POPC    O21   1737      -0.49    15.9994
  6865         CL    396   POPC    C21   1737        0.9     12.011
  6866        OBL    396   POPC    O22   1737      -0.63    15.9994
  6867       CTL2    396   POPC    C22   1737      -0.22     12.011
  6868       HAL2    396   POPC    H2R   1737       0.09      1.008
  6869       HAL2    396   POPC    H2S   1737       0.09      1.008
  6870       CTL2    396   POPC     C3   1738       0.08     12.011
  6871       HAL2    396   POPC     HX   1738       0.09      1.008
  6872       HAL2    396   POPC     HY   1738       0.09      1.008
  6873        OSL    396   POPC    O31   1738      -0.49    15.9994
  6874         CL    396   POPC    C31   1738        0.9     12.011
  6875        OBL    396   POPC    O32   1738      -0.63    15.9994
  6876       CTL2    396   POPC    C32   1738      -0.22     12.011
  6877       HAL2    396   POPC    H2X   1738       0.09      1.008
  6878       HAL2    396   POPC    H2Y   1738       0.09      1.008
  6879       CTL2    396   POPC    C23   1739      -0.18     12.011
  6880       HAL2    396   POPC    H3R   1739       0.09      1.008
  6881       HAL2    396   POPC    H3S   1739       0.09      1.008
  6882       CTL2    396   POPC    C24   1740      -0.18     12.011
  6883       HAL2    396   POPC    H4R   1740       0.09      1.008
  6884       HAL2    396   POPC    H4S   1740       0.09      1.008
  6885       CTL2    396   POPC    C25   1741      -0.18     12.011
  6886       HAL2    396   POPC    H5R   1741       0.09      1.008
  6887       HAL2    396   POPC    H5S   1741       0.09      1.008
  6888       CTL2    396   POPC    C26   1742      -0.18     12.011
  6889       HAL2    396   POPC    H6R   1742       0.09      1.008
  6890       HAL2    396   POPC    H6S   1742       0.09      1.008
  6891       CTL2    396   POPC    C27   1743      -0.18     12.011
  6892       HAL2    396   POPC    H7R   1743       0.09      1.008
  6893       HAL2    396   POPC    H7S   1743       0.09      1.008
  6894       CTL2    396   POPC    C28   1744      -0.18     12.011
  6895       HAL2    396   POPC    H8R   1744       0.09      1.008
  6896       HAL2    396   POPC    H8S   1744       0.09      1.008
  6897       CEL1    396   POPC    C29   1745      -0.15     12.011
  6898       HEL1    396   POPC    H91   1745       0.15      1.008
  6899       CEL1    396   POPC   C210   1746      -0.15     12.011
  6900       HEL1    396   POPC   H101   1746       0.15      1.008
  6901       CTL2    396   POPC   C211   1747      -0.18     12.011
  6902       HAL2    396   POPC   H11R   1747       0.09      1.008
  6903       HAL2    396   POPC   H11S   1747       0.09      1.008
  6904       CTL2    396   POPC   C212   1748      -0.18     12.011
  6905       HAL2    396   POPC   H12R   1748       0.09      1.008
  6906       HAL2    396   POPC   H12S   1748       0.09      1.008
  6907       CTL2    396   POPC   C213   1749      -0.18     12.011
  6908       HAL2    396   POPC   H13R   1749       0.09      1.008
  6909       HAL2    396   POPC   H13S   1749       0.09      1.008
  6910       CTL2    396   POPC   C214   1750      -0.18     12.011
  6911       HAL2    396   POPC   H14R   1750       0.09      1.008
  6912       HAL2    396   POPC   H14S   1750       0.09      1.008
  6913       CTL2    396   POPC   C215   1751      -0.18     12.011
  6914       HAL2    396   POPC   H15R   1751       0.09      1.008
  6915       HAL2    396   POPC   H15S   1751       0.09      1.008
  6916       CTL2    396   POPC   C216   1752      -0.18     12.011
  6917       HAL2    396   POPC   H16R   1752       0.09      1.008
  6918       HAL2    396   POPC   H16S   1752       0.09      1.008
  6919       CTL2    396   POPC   C217   1753      -0.18     12.011
  6920       HAL2    396   POPC   H17R   1753       0.09      1.008
  6921       HAL2    396   POPC   H17S   1753       0.09      1.008
  6922       CTL3    396   POPC   C218   1754      -0.27     12.011
  6923       HAL3    396   POPC   H18R   1754       0.09      1.008
  6924       HAL3    396   POPC   H18S   1754       0.09      1.008
  6925       HAL3    396   POPC   H18T   1754       0.09      1.008
  6926       CTL2    396   POPC    C33   1755      -0.18     12.011
  6927       HAL2    396   POPC    H3X   1755       0.09      1.008
  6928       HAL2    396   POPC    H3Y   1755       0.09      1.008
  6929       CTL2    396   POPC    C34   1756      -0.18     12.011
  6930       HAL2    396   POPC    H4X   1756       0.09      1.008
  6931       HAL2    396   POPC    H4Y   1756       0.09      1.008
  6932       CTL2    396   POPC    C35   1757      -0.18     12.011
  6933       HAL2    396   POPC    H5X   1757       0.09      1.008
  6934       HAL2    396   POPC    H5Y   1757       0.09      1.008
  6935       CTL2    396   POPC    C36   1758      -0.18     12.011
  6936       HAL2    396   POPC    H6X   1758       0.09      1.008
  6937       HAL2    396   POPC    H6Y   1758       0.09      1.008
  6938       CTL2    396   POPC    C37   1759      -0.18     12.011
  6939       HAL2    396   POPC    H7X   1759       0.09      1.008
  6940       HAL2    396   POPC    H7Y   1759       0.09      1.008
  6941       CTL2    396   POPC    C38   1760      -0.18     12.011
  6942       HAL2    396   POPC    H8X   1760       0.09      1.008
  6943       HAL2    396   POPC    H8Y   1760       0.09      1.008
  6944       CTL2    396   POPC    C39   1761      -0.18     12.011
  6945       HAL2    396   POPC    H9X   1761       0.09      1.008
  6946       HAL2    396   POPC    H9Y   1761       0.09      1.008
  6947       CTL2    396   POPC   C310   1762      -0.18     12.011
  6948       HAL2    396   POPC   H10X   1762       0.09      1.008
  6949       HAL2    396   POPC   H10Y   1762       0.09      1.008
  6950       CTL2    396   POPC   C311   1763      -0.18     12.011
  6951       HAL2    396   POPC   H11X   1763       0.09      1.008
  6952       HAL2    396   POPC   H11Y   1763       0.09      1.008
  6953       CTL2    396   POPC   C312   1764      -0.18     12.011
  6954       HAL2    396   POPC   H12X   1764       0.09      1.008
  6955       HAL2    396   POPC   H12Y   1764       0.09      1.008
  6956       CTL2    396   POPC   C313   1765      -0.18     12.011
  6957       HAL2    396   POPC   H13X   1765       0.09      1.008
  6958       HAL2    396   POPC   H13Y   1765       0.09      1.008
  6959       CTL2    396   POPC   C314   1766      -0.18     12.011
  6960       HAL2    396   POPC   H14X   1766       0.09      1.008
  6961       HAL2    396   POPC   H14Y   1766       0.09      1.008
  6962       CTL2    396   POPC   C315   1767      -0.18     12.011
  6963       HAL2    396   POPC   H15X   1767       0.09      1.008
  6964       HAL2    396   POPC   H15Y   1767       0.09      1.008
  6965       CTL3    396   POPC   C316   1768      -0.27     12.011
  6966       HAL3    396   POPC   H16X   1768       0.09      1.008
  6967       HAL3    396   POPC   H16Y   1768       0.09      1.008
  6968       HAL3    396   POPC   H16Z   1768       0.09      1.008   ; qtot 0
; residue 397 POPC rtp POPC q  0.0
  6969        NTL    397   POPC      N   1769       -0.6     14.007
  6970       CTL2    397   POPC    C12   1769       -0.1     12.011
  6971         HL    397   POPC   H12A   1769       0.25      1.008
  6972         HL    397   POPC   H12B   1769       0.25      1.008
  6973       CTL5    397   POPC    C13   1769      -0.35     12.011
  6974         HL    397   POPC   H13A   1769       0.25      1.008
  6975         HL    397   POPC   H13B   1769       0.25      1.008
  6976         HL    397   POPC   H13C   1769       0.25      1.008
  6977       CTL5    397   POPC    C14   1769      -0.35     12.011
  6978         HL    397   POPC   H14A   1769       0.25      1.008
  6979         HL    397   POPC   H14B   1769       0.25      1.008
  6980         HL    397   POPC   H14C   1769       0.25      1.008
  6981       CTL5    397   POPC    C15   1769      -0.35     12.011
  6982         HL    397   POPC   H15A   1769       0.25      1.008
  6983         HL    397   POPC   H15B   1769       0.25      1.008
  6984         HL    397   POPC   H15C   1769       0.25      1.008
  6985       CTL2    397   POPC    C11   1770      -0.08     12.011
  6986       HAL2    397   POPC   H11A   1770       0.09      1.008
  6987       HAL2    397   POPC   H11B   1770       0.09      1.008
  6988         PL    397   POPC      P   1770        1.5     30.974
  6989        O2L    397   POPC    O13   1770      -0.78    15.9994
  6990        O2L    397   POPC    O14   1770      -0.78    15.9994
  6991       OSLP    397   POPC    O12   1770      -0.57    15.9994
  6992       OSLP    397   POPC    O11   1770      -0.57    15.9994
  6993       CTL2    397   POPC     C1   1770      -0.08     12.011
  6994       HAL2    397   POPC     HA   1770       0.09      1.008
  6995       HAL2    397   POPC     HB   1770       0.09      1.008
  6996       CTL1    397   POPC     C2   1771       0.17     12.011
  6997       HAL1    397   POPC     HS   1771       0.09      1.008
  6998        OSL    397   POPC    O21   1771      -0.49    15.9994
  6999         CL    397   POPC    C21   1771        0.9     12.011
  7000        OBL    397   POPC    O22   1771      -0.63    15.9994
  7001       CTL2    397   POPC    C22   1771      -0.22     12.011
  7002       HAL2    397   POPC    H2R   1771       0.09      1.008
  7003       HAL2    397   POPC    H2S   1771       0.09      1.008
  7004       CTL2    397   POPC     C3   1772       0.08     12.011
  7005       HAL2    397   POPC     HX   1772       0.09      1.008
  7006       HAL2    397   POPC     HY   1772       0.09      1.008
  7007        OSL    397   POPC    O31   1772      -0.49    15.9994
  7008         CL    397   POPC    C31   1772        0.9     12.011
  7009        OBL    397   POPC    O32   1772      -0.63    15.9994
  7010       CTL2    397   POPC    C32   1772      -0.22     12.011
  7011       HAL2    397   POPC    H2X   1772       0.09      1.008
  7012       HAL2    397   POPC    H2Y   1772       0.09      1.008
  7013       CTL2    397   POPC    C23   1773      -0.18     12.011
  7014       HAL2    397   POPC    H3R   1773       0.09      1.008
  7015       HAL2    397   POPC    H3S   1773       0.09      1.008
  7016       CTL2    397   POPC    C24   1774      -0.18     12.011
  7017       HAL2    397   POPC    H4R   1774       0.09      1.008
  7018       HAL2    397   POPC    H4S   1774       0.09      1.008
  7019       CTL2    397   POPC    C25   1775      -0.18     12.011
  7020       HAL2    397   POPC    H5R   1775       0.09      1.008
  7021       HAL2    397   POPC    H5S   1775       0.09      1.008
  7022       CTL2    397   POPC    C26   1776      -0.18     12.011
  7023       HAL2    397   POPC    H6R   1776       0.09      1.008
  7024       HAL2    397   POPC    H6S   1776       0.09      1.008
  7025       CTL2    397   POPC    C27   1777      -0.18     12.011
  7026       HAL2    397   POPC    H7R   1777       0.09      1.008
  7027       HAL2    397   POPC    H7S   1777       0.09      1.008
  7028       CTL2    397   POPC    C28   1778      -0.18     12.011
  7029       HAL2    397   POPC    H8R   1778       0.09      1.008
  7030       HAL2    397   POPC    H8S   1778       0.09      1.008
  7031       CEL1    397   POPC    C29   1779      -0.15     12.011
  7032       HEL1    397   POPC    H91   1779       0.15      1.008
  7033       CEL1    397   POPC   C210   1780      -0.15     12.011
  7034       HEL1    397   POPC   H101   1780       0.15      1.008
  7035       CTL2    397   POPC   C211   1781      -0.18     12.011
  7036       HAL2    397   POPC   H11R   1781       0.09      1.008
  7037       HAL2    397   POPC   H11S   1781       0.09      1.008
  7038       CTL2    397   POPC   C212   1782      -0.18     12.011
  7039       HAL2    397   POPC   H12R   1782       0.09      1.008
  7040       HAL2    397   POPC   H12S   1782       0.09      1.008
  7041       CTL2    397   POPC   C213   1783      -0.18     12.011
  7042       HAL2    397   POPC   H13R   1783       0.09      1.008
  7043       HAL2    397   POPC   H13S   1783       0.09      1.008
  7044       CTL2    397   POPC   C214   1784      -0.18     12.011
  7045       HAL2    397   POPC   H14R   1784       0.09      1.008
  7046       HAL2    397   POPC   H14S   1784       0.09      1.008
  7047       CTL2    397   POPC   C215   1785      -0.18     12.011
  7048       HAL2    397   POPC   H15R   1785       0.09      1.008
  7049       HAL2    397   POPC   H15S   1785       0.09      1.008
  7050       CTL2    397   POPC   C216   1786      -0.18     12.011
  7051       HAL2    397   POPC   H16R   1786       0.09      1.008
  7052       HAL2    397   POPC   H16S   1786       0.09      1.008
  7053       CTL2    397   POPC   C217   1787      -0.18     12.011
  7054       HAL2    397   POPC   H17R   1787       0.09      1.008
  7055       HAL2    397   POPC   H17S   1787       0.09      1.008
  7056       CTL3    397   POPC   C218   1788      -0.27     12.011
  7057       HAL3    397   POPC   H18R   1788       0.09      1.008
  7058       HAL3    397   POPC   H18S   1788       0.09      1.008
  7059       HAL3    397   POPC   H18T   1788       0.09      1.008
  7060       CTL2    397   POPC    C33   1789      -0.18     12.011
  7061       HAL2    397   POPC    H3X   1789       0.09      1.008
  7062       HAL2    397   POPC    H3Y   1789       0.09      1.008
  7063       CTL2    397   POPC    C34   1790      -0.18     12.011
  7064       HAL2    397   POPC    H4X   1790       0.09      1.008
  7065       HAL2    397   POPC    H4Y   1790       0.09      1.008
  7066       CTL2    397   POPC    C35   1791      -0.18     12.011
  7067       HAL2    397   POPC    H5X   1791       0.09      1.008
  7068       HAL2    397   POPC    H5Y   1791       0.09      1.008
  7069       CTL2    397   POPC    C36   1792      -0.18     12.011
  7070       HAL2    397   POPC    H6X   1792       0.09      1.008
  7071       HAL2    397   POPC    H6Y   1792       0.09      1.008
  7072       CTL2    397   POPC    C37   1793      -0.18     12.011
  7073       HAL2    397   POPC    H7X   1793       0.09      1.008
  7074       HAL2    397   POPC    H7Y   1793       0.09      1.008
  7075       CTL2    397   POPC    C38   1794      -0.18     12.011
  7076       HAL2    397   POPC    H8X   1794       0.09      1.008
  7077       HAL2    397   POPC    H8Y   1794       0.09      1.008
  7078       CTL2    397   POPC    C39   1795      -0.18     12.011
  7079       HAL2    397   POPC    H9X   1795       0.09      1.008
  7080       HAL2    397   POPC    H9Y   1795       0.09      1.008
  7081       CTL2    397   POPC   C310   1796      -0.18     12.011
  7082       HAL2    397   POPC   H10X   1796       0.09      1.008
  7083       HAL2    397   POPC   H10Y   1796       0.09      1.008
  7084       CTL2    397   POPC   C311   1797      -0.18     12.011
  7085       HAL2    397   POPC   H11X   1797       0.09      1.008
  7086       HAL2    397   POPC   H11Y   1797       0.09      1.008
  7087       CTL2    397   POPC   C312   1798      -0.18     12.011
  7088       HAL2    397   POPC   H12X   1798       0.09      1.008
  7089       HAL2    397   POPC   H12Y   1798       0.09      1.008
  7090       CTL2    397   POPC   C313   1799      -0.18     12.011
  7091       HAL2    397   POPC   H13X   1799       0.09      1.008
  7092       HAL2    397   POPC   H13Y   1799       0.09      1.008
  7093       CTL2    397   POPC   C314   1800      -0.18     12.011
  7094       HAL2    397   POPC   H14X   1800       0.09      1.008
  7095       HAL2    397   POPC   H14Y   1800       0.09      1.008
  7096       CTL2    397   POPC   C315   1801      -0.18     12.011
  7097       HAL2    397   POPC   H15X   1801       0.09      1.008
  7098       HAL2    397   POPC   H15Y   1801       0.09      1.008
  7099       CTL3    397   POPC   C316   1802      -0.27     12.011
  7100       HAL3    397   POPC   H16X   1802       0.09      1.008
  7101       HAL3    397   POPC   H16Y   1802       0.09      1.008
  7102       HAL3    397   POPC   H16Z   1802       0.09      1.008   ; qtot 0
; residue 398 POPC rtp POPC q  0.0
  7103        NTL    398   POPC      N   1803       -0.6     14.007
  7104       CTL2    398   POPC    C12   1803       -0.1     12.011
  7105         HL    398   POPC   H12A   1803       0.25      1.008
  7106         HL    398   POPC   H12B   1803       0.25      1.008
  7107       CTL5    398   POPC    C13   1803      -0.35     12.011
  7108         HL    398   POPC   H13A   1803       0.25      1.008
  7109         HL    398   POPC   H13B   1803       0.25      1.008
  7110         HL    398   POPC   H13C   1803       0.25      1.008
  7111       CTL5    398   POPC    C14   1803      -0.35     12.011
  7112         HL    398   POPC   H14A   1803       0.25      1.008
  7113         HL    398   POPC   H14B   1803       0.25      1.008
  7114         HL    398   POPC   H14C   1803       0.25      1.008
  7115       CTL5    398   POPC    C15   1803      -0.35     12.011
  7116         HL    398   POPC   H15A   1803       0.25      1.008
  7117         HL    398   POPC   H15B   1803       0.25      1.008
  7118         HL    398   POPC   H15C   1803       0.25      1.008
  7119       CTL2    398   POPC    C11   1804      -0.08     12.011
  7120       HAL2    398   POPC   H11A   1804       0.09      1.008
  7121       HAL2    398   POPC   H11B   1804       0.09      1.008
  7122         PL    398   POPC      P   1804        1.5     30.974
  7123        O2L    398   POPC    O13   1804      -0.78    15.9994
  7124        O2L    398   POPC    O14   1804      -0.78    15.9994
  7125       OSLP    398   POPC    O12   1804      -0.57    15.9994
  7126       OSLP    398   POPC    O11   1804      -0.57    15.9994
  7127       CTL2    398   POPC     C1   1804      -0.08     12.011
  7128       HAL2    398   POPC     HA   1804       0.09      1.008
  7129       HAL2    398   POPC     HB   1804       0.09      1.008
  7130       CTL1    398   POPC     C2   1805       0.17     12.011
  7131       HAL1    398   POPC     HS   1805       0.09      1.008
  7132        OSL    398   POPC    O21   1805      -0.49    15.9994
  7133         CL    398   POPC    C21   1805        0.9     12.011
  7134        OBL    398   POPC    O22   1805      -0.63    15.9994
  7135       CTL2    398   POPC    C22   1805      -0.22     12.011
  7136       HAL2    398   POPC    H2R   1805       0.09      1.008
  7137       HAL2    398   POPC    H2S   1805       0.09      1.008
  7138       CTL2    398   POPC     C3   1806       0.08     12.011
  7139       HAL2    398   POPC     HX   1806       0.09      1.008
  7140       HAL2    398   POPC     HY   1806       0.09      1.008
  7141        OSL    398   POPC    O31   1806      -0.49    15.9994
  7142         CL    398   POPC    C31   1806        0.9     12.011
  7143        OBL    398   POPC    O32   1806      -0.63    15.9994
  7144       CTL2    398   POPC    C32   1806      -0.22     12.011
  7145       HAL2    398   POPC    H2X   1806       0.09      1.008
  7146       HAL2    398   POPC    H2Y   1806       0.09      1.008
  7147       CTL2    398   POPC    C23   1807      -0.18     12.011
  7148       HAL2    398   POPC    H3R   1807       0.09      1.008
  7149       HAL2    398   POPC    H3S   1807       0.09      1.008
  7150       CTL2    398   POPC    C24   1808      -0.18     12.011
  7151       HAL2    398   POPC    H4R   1808       0.09      1.008
  7152       HAL2    398   POPC    H4S   1808       0.09      1.008
  7153       CTL2    398   POPC    C25   1809      -0.18     12.011
  7154       HAL2    398   POPC    H5R   1809       0.09      1.008
  7155       HAL2    398   POPC    H5S   1809       0.09      1.008
  7156       CTL2    398   POPC    C26   1810      -0.18     12.011
  7157       HAL2    398   POPC    H6R   1810       0.09      1.008
  7158       HAL2    398   POPC    H6S   1810       0.09      1.008
  7159       CTL2    398   POPC    C27   1811      -0.18     12.011
  7160       HAL2    398   POPC    H7R   1811       0.09      1.008
  7161       HAL2    398   POPC    H7S   1811       0.09      1.008
  7162       CTL2    398   POPC    C28   1812      -0.18     12.011
  7163       HAL2    398   POPC    H8R   1812       0.09      1.008
  7164       HAL2    398   POPC    H8S   1812       0.09      1.008
  7165       CEL1    398   POPC    C29   1813      -0.15     12.011
  7166       HEL1    398   POPC    H91   1813       0.15      1.008
  7167       CEL1    398   POPC   C210   1814      -0.15     12.011
  7168       HEL1    398   POPC   H101   1814       0.15      1.008
  7169       CTL2    398   POPC   C211   1815      -0.18     12.011
  7170       HAL2    398   POPC   H11R   1815       0.09      1.008
  7171       HAL2    398   POPC   H11S   1815       0.09      1.008
  7172       CTL2    398   POPC   C212   1816      -0.18     12.011
  7173       HAL2    398   POPC   H12R   1816       0.09      1.008
  7174       HAL2    398   POPC   H12S   1816       0.09      1.008
  7175       CTL2    398   POPC   C213   1817      -0.18     12.011
  7176       HAL2    398   POPC   H13R   1817       0.09      1.008
  7177       HAL2    398   POPC   H13S   1817       0.09      1.008
  7178       CTL2    398   POPC   C214   1818      -0.18     12.011
  7179       HAL2    398   POPC   H14R   1818       0.09      1.008
  7180       HAL2    398   POPC   H14S   1818       0.09      1.008
  7181       CTL2    398   POPC   C215   1819      -0.18     12.011
  7182       HAL2    398   POPC   H15R   1819       0.09      1.008
  7183       HAL2    398   POPC   H15S   1819       0.09      1.008
  7184       CTL2    398   POPC   C216   1820      -0.18     12.011
  7185       HAL2    398   POPC   H16R   1820       0.09      1.008
  7186       HAL2    398   POPC   H16S   1820       0.09      1.008
  7187       CTL2    398   POPC   C217   1821      -0.18     12.011
  7188       HAL2    398   POPC   H17R   1821       0.09      1.008
  7189       HAL2    398   POPC   H17S   1821       0.09      1.008
  7190       CTL3    398   POPC   C218   1822      -0.27     12.011
  7191       HAL3    398   POPC   H18R   1822       0.09      1.008
  7192       HAL3    398   POPC   H18S   1822       0.09      1.008
  7193       HAL3    398   POPC   H18T   1822       0.09      1.008
  7194       CTL2    398   POPC    C33   1823      -0.18     12.011
  7195       HAL2    398   POPC    H3X   1823       0.09      1.008
  7196       HAL2    398   POPC    H3Y   1823       0.09      1.008
  7197       CTL2    398   POPC    C34   1824      -0.18     12.011
  7198       HAL2    398   POPC    H4X   1824       0.09      1.008
  7199       HAL2    398   POPC    H4Y   1824       0.09      1.008
  7200       CTL2    398   POPC    C35   1825      -0.18     12.011
  7201       HAL2    398   POPC    H5X   1825       0.09      1.008
  7202       HAL2    398   POPC    H5Y   1825       0.09      1.008
  7203       CTL2    398   POPC    C36   1826      -0.18     12.011
  7204       HAL2    398   POPC    H6X   1826       0.09      1.008
  7205       HAL2    398   POPC    H6Y   1826       0.09      1.008
  7206       CTL2    398   POPC    C37   1827      -0.18     12.011
  7207       HAL2    398   POPC    H7X   1827       0.09      1.008
  7208       HAL2    398   POPC    H7Y   1827       0.09      1.008
  7209       CTL2    398   POPC    C38   1828      -0.18     12.011
  7210       HAL2    398   POPC    H8X   1828       0.09      1.008
  7211       HAL2    398   POPC    H8Y   1828       0.09      1.008
  7212       CTL2    398   POPC    C39   1829      -0.18     12.011
  7213       HAL2    398   POPC    H9X   1829       0.09      1.008
  7214       HAL2    398   POPC    H9Y   1829       0.09      1.008
  7215       CTL2    398   POPC   C310   1830      -0.18     12.011
  7216       HAL2    398   POPC   H10X   1830       0.09      1.008
  7217       HAL2    398   POPC   H10Y   1830       0.09      1.008
  7218       CTL2    398   POPC   C311   1831      -0.18     12.011
  7219       HAL2    398   POPC   H11X   1831       0.09      1.008
  7220       HAL2    398   POPC   H11Y   1831       0.09      1.008
  7221       CTL2    398   POPC   C312   1832      -0.18     12.011
  7222       HAL2    398   POPC   H12X   1832       0.09      1.008
  7223       HAL2    398   POPC   H12Y   1832       0.09      1.008
  7224       CTL2    398   POPC   C313   1833      -0.18     12.011
  7225       HAL2    398   POPC   H13X   1833       0.09      1.008
  7226       HAL2    398   POPC   H13Y   1833       0.09      1.008
  7227       CTL2    398   POPC   C314   1834      -0.18     12.011
  7228       HAL2    398   POPC   H14X   1834       0.09      1.008
  7229       HAL2    398   POPC   H14Y   1834       0.09      1.008
  7230       CTL2    398   POPC   C315   1835      -0.18     12.011
  7231       HAL2    398   POPC   H15X   1835       0.09      1.008
  7232       HAL2    398   POPC   H15Y   1835       0.09      1.008
  7233       CTL3    398   POPC   C316   1836      -0.27     12.011
  7234       HAL3    398   POPC   H16X   1836       0.09      1.008
  7235       HAL3    398   POPC   H16Y   1836       0.09      1.008
  7236       HAL3    398   POPC   H16Z   1836       0.09      1.008   ; qtot 0
; residue 399 POPC rtp POPC q  0.0
  7237        NTL    399   POPC      N   1837       -0.6     14.007
  7238       CTL2    399   POPC    C12   1837       -0.1     12.011
  7239         HL    399   POPC   H12A   1837       0.25      1.008
  7240         HL    399   POPC   H12B   1837       0.25      1.008
  7241       CTL5    399   POPC    C13   1837      -0.35     12.011
  7242         HL    399   POPC   H13A   1837       0.25      1.008
  7243         HL    399   POPC   H13B   1837       0.25      1.008
  7244         HL    399   POPC   H13C   1837       0.25      1.008
  7245       CTL5    399   POPC    C14   1837      -0.35     12.011
  7246         HL    399   POPC   H14A   1837       0.25      1.008
  7247         HL    399   POPC   H14B   1837       0.25      1.008
  7248         HL    399   POPC   H14C   1837       0.25      1.008
  7249       CTL5    399   POPC    C15   1837      -0.35     12.011
  7250         HL    399   POPC   H15A   1837       0.25      1.008
  7251         HL    399   POPC   H15B   1837       0.25      1.008
  7252         HL    399   POPC   H15C   1837       0.25      1.008
  7253       CTL2    399   POPC    C11   1838      -0.08     12.011
  7254       HAL2    399   POPC   H11A   1838       0.09      1.008
  7255       HAL2    399   POPC   H11B   1838       0.09      1.008
  7256         PL    399   POPC      P   1838        1.5     30.974
  7257        O2L    399   POPC    O13   1838      -0.78    15.9994
  7258        O2L    399   POPC    O14   1838      -0.78    15.9994
  7259       OSLP    399   POPC    O12   1838      -0.57    15.9994
  7260       OSLP    399   POPC    O11   1838      -0.57    15.9994
  7261       CTL2    399   POPC     C1   1838      -0.08     12.011
  7262       HAL2    399   POPC     HA   1838       0.09      1.008
  7263       HAL2    399   POPC     HB   1838       0.09      1.008
  7264       CTL1    399   POPC     C2   1839       0.17     12.011
  7265       HAL1    399   POPC     HS   1839       0.09      1.008
  7266        OSL    399   POPC    O21   1839      -0.49    15.9994
  7267         CL    399   POPC    C21   1839        0.9     12.011
  7268        OBL    399   POPC    O22   1839      -0.63    15.9994
  7269       CTL2    399   POPC    C22   1839      -0.22     12.011
  7270       HAL2    399   POPC    H2R   1839       0.09      1.008
  7271       HAL2    399   POPC    H2S   1839       0.09      1.008
  7272       CTL2    399   POPC     C3   1840       0.08     12.011
  7273       HAL2    399   POPC     HX   1840       0.09      1.008
  7274       HAL2    399   POPC     HY   1840       0.09      1.008
  7275        OSL    399   POPC    O31   1840      -0.49    15.9994
  7276         CL    399   POPC    C31   1840        0.9     12.011
  7277        OBL    399   POPC    O32   1840      -0.63    15.9994
  7278       CTL2    399   POPC    C32   1840      -0.22     12.011
  7279       HAL2    399   POPC    H2X   1840       0.09      1.008
  7280       HAL2    399   POPC    H2Y   1840       0.09      1.008
  7281       CTL2    399   POPC    C23   1841      -0.18     12.011
  7282       HAL2    399   POPC    H3R   1841       0.09      1.008
  7283       HAL2    399   POPC    H3S   1841       0.09      1.008
  7284       CTL2    399   POPC    C24   1842      -0.18     12.011
  7285       HAL2    399   POPC    H4R   1842       0.09      1.008
  7286       HAL2    399   POPC    H4S   1842       0.09      1.008
  7287       CTL2    399   POPC    C25   1843      -0.18     12.011
  7288       HAL2    399   POPC    H5R   1843       0.09      1.008
  7289       HAL2    399   POPC    H5S   1843       0.09      1.008
  7290       CTL2    399   POPC    C26   1844      -0.18     12.011
  7291       HAL2    399   POPC    H6R   1844       0.09      1.008
  7292       HAL2    399   POPC    H6S   1844       0.09      1.008
  7293       CTL2    399   POPC    C27   1845      -0.18     12.011
  7294       HAL2    399   POPC    H7R   1845       0.09      1.008
  7295       HAL2    399   POPC    H7S   1845       0.09      1.008
  7296       CTL2    399   POPC    C28   1846      -0.18     12.011
  7297       HAL2    399   POPC    H8R   1846       0.09      1.008
  7298       HAL2    399   POPC    H8S   1846       0.09      1.008
  7299       CEL1    399   POPC    C29   1847      -0.15     12.011
  7300       HEL1    399   POPC    H91   1847       0.15      1.008
  7301       CEL1    399   POPC   C210   1848      -0.15     12.011
  7302       HEL1    399   POPC   H101   1848       0.15      1.008
  7303       CTL2    399   POPC   C211   1849      -0.18     12.011
  7304       HAL2    399   POPC   H11R   1849       0.09      1.008
  7305       HAL2    399   POPC   H11S   1849       0.09      1.008
  7306       CTL2    399   POPC   C212   1850      -0.18     12.011
  7307       HAL2    399   POPC   H12R   1850       0.09      1.008
  7308       HAL2    399   POPC   H12S   1850       0.09      1.008
  7309       CTL2    399   POPC   C213   1851      -0.18     12.011
  7310       HAL2    399   POPC   H13R   1851       0.09      1.008
  7311       HAL2    399   POPC   H13S   1851       0.09      1.008
  7312       CTL2    399   POPC   C214   1852      -0.18     12.011
  7313       HAL2    399   POPC   H14R   1852       0.09      1.008
  7314       HAL2    399   POPC   H14S   1852       0.09      1.008
  7315       CTL2    399   POPC   C215   1853      -0.18     12.011
  7316       HAL2    399   POPC   H15R   1853       0.09      1.008
  7317       HAL2    399   POPC   H15S   1853       0.09      1.008
  7318       CTL2    399   POPC   C216   1854      -0.18     12.011
  7319       HAL2    399   POPC   H16R   1854       0.09      1.008
  7320       HAL2    399   POPC   H16S   1854       0.09      1.008
  7321       CTL2    399   POPC   C217   1855      -0.18     12.011
  7322       HAL2    399   POPC   H17R   1855       0.09      1.008
  7323       HAL2    399   POPC   H17S   1855       0.09      1.008
  7324       CTL3    399   POPC   C218   1856      -0.27     12.011
  7325       HAL3    399   POPC   H18R   1856       0.09      1.008
  7326       HAL3    399   POPC   H18S   1856       0.09      1.008
  7327       HAL3    399   POPC   H18T   1856       0.09      1.008
  7328       CTL2    399   POPC    C33   1857      -0.18     12.011
  7329       HAL2    399   POPC    H3X   1857       0.09      1.008
  7330       HAL2    399   POPC    H3Y   1857       0.09      1.008
  7331       CTL2    399   POPC    C34   1858      -0.18     12.011
  7332       HAL2    399   POPC    H4X   1858       0.09      1.008
  7333       HAL2    399   POPC    H4Y   1858       0.09      1.008
  7334       CTL2    399   POPC    C35   1859      -0.18     12.011
  7335       HAL2    399   POPC    H5X   1859       0.09      1.008
  7336       HAL2    399   POPC    H5Y   1859       0.09      1.008
  7337       CTL2    399   POPC    C36   1860      -0.18     12.011
  7338       HAL2    399   POPC    H6X   1860       0.09      1.008
  7339       HAL2    399   POPC    H6Y   1860       0.09      1.008
  7340       CTL2    399   POPC    C37   1861      -0.18     12.011
  7341       HAL2    399   POPC    H7X   1861       0.09      1.008
  7342       HAL2    399   POPC    H7Y   1861       0.09      1.008
  7343       CTL2    399   POPC    C38   1862      -0.18     12.011
  7344       HAL2    399   POPC    H8X   1862       0.09      1.008
  7345       HAL2    399   POPC    H8Y   1862       0.09      1.008
  7346       CTL2    399   POPC    C39   1863      -0.18     12.011
  7347       HAL2    399   POPC    H9X   1863       0.09      1.008
  7348       HAL2    399   POPC    H9Y   1863       0.09      1.008
  7349       CTL2    399   POPC   C310   1864      -0.18     12.011
  7350       HAL2    399   POPC   H10X   1864       0.09      1.008
  7351       HAL2    399   POPC   H10Y   1864       0.09      1.008
  7352       CTL2    399   POPC   C311   1865      -0.18     12.011
  7353       HAL2    399   POPC   H11X   1865       0.09      1.008
  7354       HAL2    399   POPC   H11Y   1865       0.09      1.008
  7355       CTL2    399   POPC   C312   1866      -0.18     12.011
  7356       HAL2    399   POPC   H12X   1866       0.09      1.008
  7357       HAL2    399   POPC   H12Y   1866       0.09      1.008
  7358       CTL2    399   POPC   C313   1867      -0.18     12.011
  7359       HAL2    399   POPC   H13X   1867       0.09      1.008
  7360       HAL2    399   POPC   H13Y   1867       0.09      1.008
  7361       CTL2    399   POPC   C314   1868      -0.18     12.011
  7362       HAL2    399   POPC   H14X   1868       0.09      1.008
  7363       HAL2    399   POPC   H14Y   1868       0.09      1.008
  7364       CTL2    399   POPC   C315   1869      -0.18     12.011
  7365       HAL2    399   POPC   H15X   1869       0.09      1.008
  7366       HAL2    399   POPC   H15Y   1869       0.09      1.008
  7367       CTL3    399   POPC   C316   1870      -0.27     12.011
  7368       HAL3    399   POPC   H16X   1870       0.09      1.008
  7369       HAL3    399   POPC   H16Y   1870       0.09      1.008
  7370       HAL3    399   POPC   H16Z   1870       0.09      1.008   ; qtot 0
; residue 400 POPC rtp POPC q  0.0
  7371        NTL    400   POPC      N   1871       -0.6     14.007
  7372       CTL2    400   POPC    C12   1871       -0.1     12.011
  7373         HL    400   POPC   H12A   1871       0.25      1.008
  7374         HL    400   POPC   H12B   1871       0.25      1.008
  7375       CTL5    400   POPC    C13   1871      -0.35     12.011
  7376         HL    400   POPC   H13A   1871       0.25      1.008
  7377         HL    400   POPC   H13B   1871       0.25      1.008
  7378         HL    400   POPC   H13C   1871       0.25      1.008
  7379       CTL5    400   POPC    C14   1871      -0.35     12.011
  7380         HL    400   POPC   H14A   1871       0.25      1.008
  7381         HL    400   POPC   H14B   1871       0.25      1.008
  7382         HL    400   POPC   H14C   1871       0.25      1.008
  7383       CTL5    400   POPC    C15   1871      -0.35     12.011
  7384         HL    400   POPC   H15A   1871       0.25      1.008
  7385         HL    400   POPC   H15B   1871       0.25      1.008
  7386         HL    400   POPC   H15C   1871       0.25      1.008
  7387       CTL2    400   POPC    C11   1872      -0.08     12.011
  7388       HAL2    400   POPC   H11A   1872       0.09      1.008
  7389       HAL2    400   POPC   H11B   1872       0.09      1.008
  7390         PL    400   POPC      P   1872        1.5     30.974
  7391        O2L    400   POPC    O13   1872      -0.78    15.9994
  7392        O2L    400   POPC    O14   1872      -0.78    15.9994
  7393       OSLP    400   POPC    O12   1872      -0.57    15.9994
  7394       OSLP    400   POPC    O11   1872      -0.57    15.9994
  7395       CTL2    400   POPC     C1   1872      -0.08     12.011
  7396       HAL2    400   POPC     HA   1872       0.09      1.008
  7397       HAL2    400   POPC     HB   1872       0.09      1.008
  7398       CTL1    400   POPC     C2   1873       0.17     12.011
  7399       HAL1    400   POPC     HS   1873       0.09      1.008
  7400        OSL    400   POPC    O21   1873      -0.49    15.9994
  7401         CL    400   POPC    C21   1873        0.9     12.011
  7402        OBL    400   POPC    O22   1873      -0.63    15.9994
  7403       CTL2    400   POPC    C22   1873      -0.22     12.011
  7404       HAL2    400   POPC    H2R   1873       0.09      1.008
  7405       HAL2    400   POPC    H2S   1873       0.09      1.008
  7406       CTL2    400   POPC     C3   1874       0.08     12.011
  7407       HAL2    400   POPC     HX   1874       0.09      1.008
  7408       HAL2    400   POPC     HY   1874       0.09      1.008
  7409        OSL    400   POPC    O31   1874      -0.49    15.9994
  7410         CL    400   POPC    C31   1874        0.9     12.011
  7411        OBL    400   POPC    O32   1874      -0.63    15.9994
  7412       CTL2    400   POPC    C32   1874      -0.22     12.011
  7413       HAL2    400   POPC    H2X   1874       0.09      1.008
  7414       HAL2    400   POPC    H2Y   1874       0.09      1.008
  7415       CTL2    400   POPC    C23   1875      -0.18     12.011
  7416       HAL2    400   POPC    H3R   1875       0.09      1.008
  7417       HAL2    400   POPC    H3S   1875       0.09      1.008
  7418       CTL2    400   POPC    C24   1876      -0.18     12.011
  7419       HAL2    400   POPC    H4R   1876       0.09      1.008
  7420       HAL2    400   POPC    H4S   1876       0.09      1.008
  7421       CTL2    400   POPC    C25   1877      -0.18     12.011
  7422       HAL2    400   POPC    H5R   1877       0.09      1.008
  7423       HAL2    400   POPC    H5S   1877       0.09      1.008
  7424       CTL2    400   POPC    C26   1878      -0.18     12.011
  7425       HAL2    400   POPC    H6R   1878       0.09      1.008
  7426       HAL2    400   POPC    H6S   1878       0.09      1.008
  7427       CTL2    400   POPC    C27   1879      -0.18     12.011
  7428       HAL2    400   POPC    H7R   1879       0.09      1.008
  7429       HAL2    400   POPC    H7S   1879       0.09      1.008
  7430       CTL2    400   POPC    C28   1880      -0.18     12.011
  7431       HAL2    400   POPC    H8R   1880       0.09      1.008
  7432       HAL2    400   POPC    H8S   1880       0.09      1.008
  7433       CEL1    400   POPC    C29   1881      -0.15     12.011
  7434       HEL1    400   POPC    H91   1881       0.15      1.008
  7435       CEL1    400   POPC   C210   1882      -0.15     12.011
  7436       HEL1    400   POPC   H101   1882       0.15      1.008
  7437       CTL2    400   POPC   C211   1883      -0.18     12.011
  7438       HAL2    400   POPC   H11R   1883       0.09      1.008
  7439       HAL2    400   POPC   H11S   1883       0.09      1.008
  7440       CTL2    400   POPC   C212   1884      -0.18     12.011
  7441       HAL2    400   POPC   H12R   1884       0.09      1.008
  7442       HAL2    400   POPC   H12S   1884       0.09      1.008
  7443       CTL2    400   POPC   C213   1885      -0.18     12.011
  7444       HAL2    400   POPC   H13R   1885       0.09      1.008
  7445       HAL2    400   POPC   H13S   1885       0.09      1.008
  7446       CTL2    400   POPC   C214   1886      -0.18     12.011
  7447       HAL2    400   POPC   H14R   1886       0.09      1.008
  7448       HAL2    400   POPC   H14S   1886       0.09      1.008
  7449       CTL2    400   POPC   C215   1887      -0.18     12.011
  7450       HAL2    400   POPC   H15R   1887       0.09      1.008
  7451       HAL2    400   POPC   H15S   1887       0.09      1.008
  7452       CTL2    400   POPC   C216   1888      -0.18     12.011
  7453       HAL2    400   POPC   H16R   1888       0.09      1.008
  7454       HAL2    400   POPC   H16S   1888       0.09      1.008
  7455       CTL2    400   POPC   C217   1889      -0.18     12.011
  7456       HAL2    400   POPC   H17R   1889       0.09      1.008
  7457       HAL2    400   POPC   H17S   1889       0.09      1.008
  7458       CTL3    400   POPC   C218   1890      -0.27     12.011
  7459       HAL3    400   POPC   H18R   1890       0.09      1.008
  7460       HAL3    400   POPC   H18S   1890       0.09      1.008
  7461       HAL3    400   POPC   H18T   1890       0.09      1.008
  7462       CTL2    400   POPC    C33   1891      -0.18     12.011
  7463       HAL2    400   POPC    H3X   1891       0.09      1.008
  7464       HAL2    400   POPC    H3Y   1891       0.09      1.008
  7465       CTL2    400   POPC    C34   1892      -0.18     12.011
  7466       HAL2    400   POPC    H4X   1892       0.09      1.008
  7467       HAL2    400   POPC    H4Y   1892       0.09      1.008
  7468       CTL2    400   POPC    C35   1893      -0.18     12.011
  7469       HAL2    400   POPC    H5X   1893       0.09      1.008
  7470       HAL2    400   POPC    H5Y   1893       0.09      1.008
  7471       CTL2    400   POPC    C36   1894      -0.18     12.011
  7472       HAL2    400   POPC    H6X   1894       0.09      1.008
  7473       HAL2    400   POPC    H6Y   1894       0.09      1.008
  7474       CTL2    400   POPC    C37   1895      -0.18     12.011
  7475       HAL2    400   POPC    H7X   1895       0.09      1.008
  7476       HAL2    400   POPC    H7Y   1895       0.09      1.008
  7477       CTL2    400   POPC    C38   1896      -0.18     12.011
  7478       HAL2    400   POPC    H8X   1896       0.09      1.008
  7479       HAL2    400   POPC    H8Y   1896       0.09      1.008
  7480       CTL2    400   POPC    C39   1897      -0.18     12.011
  7481       HAL2    400   POPC    H9X   1897       0.09      1.008
  7482       HAL2    400   POPC    H9Y   1897       0.09      1.008
  7483       CTL2    400   POPC   C310   1898      -0.18     12.011
  7484       HAL2    400   POPC   H10X   1898       0.09      1.008
  7485       HAL2    400   POPC   H10Y   1898       0.09      1.008
  7486       CTL2    400   POPC   C311   1899      -0.18     12.011
  7487       HAL2    400   POPC   H11X   1899       0.09      1.008
  7488       HAL2    400   POPC   H11Y   1899       0.09      1.008
  7489       CTL2    400   POPC   C312   1900      -0.18     12.011
  7490       HAL2    400   POPC   H12X   1900       0.09      1.008
  7491       HAL2    400   POPC   H12Y   1900       0.09      1.008
  7492       CTL2    400   POPC   C313   1901      -0.18     12.011
  7493       HAL2    400   POPC   H13X   1901       0.09      1.008
  7494       HAL2    400   POPC   H13Y   1901       0.09      1.008
  7495       CTL2    400   POPC   C314   1902      -0.18     12.011
  7496       HAL2    400   POPC   H14X   1902       0.09      1.008
  7497       HAL2    400   POPC   H14Y   1902       0.09      1.008
  7498       CTL2    400   POPC   C315   1903      -0.18     12.011
  7499       HAL2    400   POPC   H15X   1903       0.09      1.008
  7500       HAL2    400   POPC   H15Y   1903       0.09      1.008
  7501       CTL3    400   POPC   C316   1904      -0.27     12.011
  7502       HAL3    400   POPC   H16X   1904       0.09      1.008
  7503       HAL3    400   POPC   H16Y   1904       0.09      1.008
  7504       HAL3    400   POPC   H16Z   1904       0.09      1.008   ; qtot 0
; residue 401 POPC rtp POPC q  0.0
  7505        NTL    401   POPC      N   1905       -0.6     14.007
  7506       CTL2    401   POPC    C12   1905       -0.1     12.011
  7507         HL    401   POPC   H12A   1905       0.25      1.008
  7508         HL    401   POPC   H12B   1905       0.25      1.008
  7509       CTL5    401   POPC    C13   1905      -0.35     12.011
  7510         HL    401   POPC   H13A   1905       0.25      1.008
  7511         HL    401   POPC   H13B   1905       0.25      1.008
  7512         HL    401   POPC   H13C   1905       0.25      1.008
  7513       CTL5    401   POPC    C14   1905      -0.35     12.011
  7514         HL    401   POPC   H14A   1905       0.25      1.008
  7515         HL    401   POPC   H14B   1905       0.25      1.008
  7516         HL    401   POPC   H14C   1905       0.25      1.008
  7517       CTL5    401   POPC    C15   1905      -0.35     12.011
  7518         HL    401   POPC   H15A   1905       0.25      1.008
  7519         HL    401   POPC   H15B   1905       0.25      1.008
  7520         HL    401   POPC   H15C   1905       0.25      1.008
  7521       CTL2    401   POPC    C11   1906      -0.08     12.011
  7522       HAL2    401   POPC   H11A   1906       0.09      1.008
  7523       HAL2    401   POPC   H11B   1906       0.09      1.008
  7524         PL    401   POPC      P   1906        1.5     30.974
  7525        O2L    401   POPC    O13   1906      -0.78    15.9994
  7526        O2L    401   POPC    O14   1906      -0.78    15.9994
  7527       OSLP    401   POPC    O12   1906      -0.57    15.9994
  7528       OSLP    401   POPC    O11   1906      -0.57    15.9994
  7529       CTL2    401   POPC     C1   1906      -0.08     12.011
  7530       HAL2    401   POPC     HA   1906       0.09      1.008
  7531       HAL2    401   POPC     HB   1906       0.09      1.008
  7532       CTL1    401   POPC     C2   1907       0.17     12.011
  7533       HAL1    401   POPC     HS   1907       0.09      1.008
  7534        OSL    401   POPC    O21   1907      -0.49    15.9994
  7535         CL    401   POPC    C21   1907        0.9     12.011
  7536        OBL    401   POPC    O22   1907      -0.63    15.9994
  7537       CTL2    401   POPC    C22   1907      -0.22     12.011
  7538       HAL2    401   POPC    H2R   1907       0.09      1.008
  7539       HAL2    401   POPC    H2S   1907       0.09      1.008
  7540       CTL2    401   POPC     C3   1908       0.08     12.011
  7541       HAL2    401   POPC     HX   1908       0.09      1.008
  7542       HAL2    401   POPC     HY   1908       0.09      1.008
  7543        OSL    401   POPC    O31   1908      -0.49    15.9994
  7544         CL    401   POPC    C31   1908        0.9     12.011
  7545        OBL    401   POPC    O32   1908      -0.63    15.9994
  7546       CTL2    401   POPC    C32   1908      -0.22     12.011
  7547       HAL2    401   POPC    H2X   1908       0.09      1.008
  7548       HAL2    401   POPC    H2Y   1908       0.09      1.008
  7549       CTL2    401   POPC    C23   1909      -0.18     12.011
  7550       HAL2    401   POPC    H3R   1909       0.09      1.008
  7551       HAL2    401   POPC    H3S   1909       0.09      1.008
  7552       CTL2    401   POPC    C24   1910      -0.18     12.011
  7553       HAL2    401   POPC    H4R   1910       0.09      1.008
  7554       HAL2    401   POPC    H4S   1910       0.09      1.008
  7555       CTL2    401   POPC    C25   1911      -0.18     12.011
  7556       HAL2    401   POPC    H5R   1911       0.09      1.008
  7557       HAL2    401   POPC    H5S   1911       0.09      1.008
  7558       CTL2    401   POPC    C26   1912      -0.18     12.011
  7559       HAL2    401   POPC    H6R   1912       0.09      1.008
  7560       HAL2    401   POPC    H6S   1912       0.09      1.008
  7561       CTL2    401   POPC    C27   1913      -0.18     12.011
  7562       HAL2    401   POPC    H7R   1913       0.09      1.008
  7563       HAL2    401   POPC    H7S   1913       0.09      1.008
  7564       CTL2    401   POPC    C28   1914      -0.18     12.011
  7565       HAL2    401   POPC    H8R   1914       0.09      1.008
  7566       HAL2    401   POPC    H8S   1914       0.09      1.008
  7567       CEL1    401   POPC    C29   1915      -0.15     12.011
  7568       HEL1    401   POPC    H91   1915       0.15      1.008
  7569       CEL1    401   POPC   C210   1916      -0.15     12.011
  7570       HEL1    401   POPC   H101   1916       0.15      1.008
  7571       CTL2    401   POPC   C211   1917      -0.18     12.011
  7572       HAL2    401   POPC   H11R   1917       0.09      1.008
  7573       HAL2    401   POPC   H11S   1917       0.09      1.008
  7574       CTL2    401   POPC   C212   1918      -0.18     12.011
  7575       HAL2    401   POPC   H12R   1918       0.09      1.008
  7576       HAL2    401   POPC   H12S   1918       0.09      1.008
  7577       CTL2    401   POPC   C213   1919      -0.18     12.011
  7578       HAL2    401   POPC   H13R   1919       0.09      1.008
  7579       HAL2    401   POPC   H13S   1919       0.09      1.008
  7580       CTL2    401   POPC   C214   1920      -0.18     12.011
  7581       HAL2    401   POPC   H14R   1920       0.09      1.008
  7582       HAL2    401   POPC   H14S   1920       0.09      1.008
  7583       CTL2    401   POPC   C215   1921      -0.18     12.011
  7584       HAL2    401   POPC   H15R   1921       0.09      1.008
  7585       HAL2    401   POPC   H15S   1921       0.09      1.008
  7586       CTL2    401   POPC   C216   1922      -0.18     12.011
  7587       HAL2    401   POPC   H16R   1922       0.09      1.008
  7588       HAL2    401   POPC   H16S   1922       0.09      1.008
  7589       CTL2    401   POPC   C217   1923      -0.18     12.011
  7590       HAL2    401   POPC   H17R   1923       0.09      1.008
  7591       HAL2    401   POPC   H17S   1923       0.09      1.008
  7592       CTL3    401   POPC   C218   1924      -0.27     12.011
  7593       HAL3    401   POPC   H18R   1924       0.09      1.008
  7594       HAL3    401   POPC   H18S   1924       0.09      1.008
  7595       HAL3    401   POPC   H18T   1924       0.09      1.008
  7596       CTL2    401   POPC    C33   1925      -0.18     12.011
  7597       HAL2    401   POPC    H3X   1925       0.09      1.008
  7598       HAL2    401   POPC    H3Y   1925       0.09      1.008
  7599       CTL2    401   POPC    C34   1926      -0.18     12.011
  7600       HAL2    401   POPC    H4X   1926       0.09      1.008
  7601       HAL2    401   POPC    H4Y   1926       0.09      1.008
  7602       CTL2    401   POPC    C35   1927      -0.18     12.011
  7603       HAL2    401   POPC    H5X   1927       0.09      1.008
  7604       HAL2    401   POPC    H5Y   1927       0.09      1.008
  7605       CTL2    401   POPC    C36   1928      -0.18     12.011
  7606       HAL2    401   POPC    H6X   1928       0.09      1.008
  7607       HAL2    401   POPC    H6Y   1928       0.09      1.008
  7608       CTL2    401   POPC    C37   1929      -0.18     12.011
  7609       HAL2    401   POPC    H7X   1929       0.09      1.008
  7610       HAL2    401   POPC    H7Y   1929       0.09      1.008
  7611       CTL2    401   POPC    C38   1930      -0.18     12.011
  7612       HAL2    401   POPC    H8X   1930       0.09      1.008
  7613       HAL2    401   POPC    H8Y   1930       0.09      1.008
  7614       CTL2    401   POPC    C39   1931      -0.18     12.011
  7615       HAL2    401   POPC    H9X   1931       0.09      1.008
  7616       HAL2    401   POPC    H9Y   1931       0.09      1.008
  7617       CTL2    401   POPC   C310   1932      -0.18     12.011
  7618       HAL2    401   POPC   H10X   1932       0.09      1.008
  7619       HAL2    401   POPC   H10Y   1932       0.09      1.008
  7620       CTL2    401   POPC   C311   1933      -0.18     12.011
  7621       HAL2    401   POPC   H11X   1933       0.09      1.008
  7622       HAL2    401   POPC   H11Y   1933       0.09      1.008
  7623       CTL2    401   POPC   C312   1934      -0.18     12.011
  7624       HAL2    401   POPC   H12X   1934       0.09      1.008
  7625       HAL2    401   POPC   H12Y   1934       0.09      1.008
  7626       CTL2    401   POPC   C313   1935      -0.18     12.011
  7627       HAL2    401   POPC   H13X   1935       0.09      1.008
  7628       HAL2    401   POPC   H13Y   1935       0.09      1.008
  7629       CTL2    401   POPC   C314   1936      -0.18     12.011
  7630       HAL2    401   POPC   H14X   1936       0.09      1.008
  7631       HAL2    401   POPC   H14Y   1936       0.09      1.008
  7632       CTL2    401   POPC   C315   1937      -0.18     12.011
  7633       HAL2    401   POPC   H15X   1937       0.09      1.008
  7634       HAL2    401   POPC   H15Y   1937       0.09      1.008
  7635       CTL3    401   POPC   C316   1938      -0.27     12.011
  7636       HAL3    401   POPC   H16X   1938       0.09      1.008
  7637       HAL3    401   POPC   H16Y   1938       0.09      1.008
  7638       HAL3    401   POPC   H16Z   1938       0.09      1.008   ; qtot 0
; residue 402 POPC rtp POPC q  0.0
  7639        NTL    402   POPC      N   1939       -0.6     14.007
  7640       CTL2    402   POPC    C12   1939       -0.1     12.011
  7641         HL    402   POPC   H12A   1939       0.25      1.008
  7642         HL    402   POPC   H12B   1939       0.25      1.008
  7643       CTL5    402   POPC    C13   1939      -0.35     12.011
  7644         HL    402   POPC   H13A   1939       0.25      1.008
  7645         HL    402   POPC   H13B   1939       0.25      1.008
  7646         HL    402   POPC   H13C   1939       0.25      1.008
  7647       CTL5    402   POPC    C14   1939      -0.35     12.011
  7648         HL    402   POPC   H14A   1939       0.25      1.008
  7649         HL    402   POPC   H14B   1939       0.25      1.008
  7650         HL    402   POPC   H14C   1939       0.25      1.008
  7651       CTL5    402   POPC    C15   1939      -0.35     12.011
  7652         HL    402   POPC   H15A   1939       0.25      1.008
  7653         HL    402   POPC   H15B   1939       0.25      1.008
  7654         HL    402   POPC   H15C   1939       0.25      1.008
  7655       CTL2    402   POPC    C11   1940      -0.08     12.011
  7656       HAL2    402   POPC   H11A   1940       0.09      1.008
  7657       HAL2    402   POPC   H11B   1940       0.09      1.008
  7658         PL    402   POPC      P   1940        1.5     30.974
  7659        O2L    402   POPC    O13   1940      -0.78    15.9994
  7660        O2L    402   POPC    O14   1940      -0.78    15.9994
  7661       OSLP    402   POPC    O12   1940      -0.57    15.9994
  7662       OSLP    402   POPC    O11   1940      -0.57    15.9994
  7663       CTL2    402   POPC     C1   1940      -0.08     12.011
  7664       HAL2    402   POPC     HA   1940       0.09      1.008
  7665       HAL2    402   POPC     HB   1940       0.09      1.008
  7666       CTL1    402   POPC     C2   1941       0.17     12.011
  7667       HAL1    402   POPC     HS   1941       0.09      1.008
  7668        OSL    402   POPC    O21   1941      -0.49    15.9994
  7669         CL    402   POPC    C21   1941        0.9     12.011
  7670        OBL    402   POPC    O22   1941      -0.63    15.9994
  7671       CTL2    402   POPC    C22   1941      -0.22     12.011
  7672       HAL2    402   POPC    H2R   1941       0.09      1.008
  7673       HAL2    402   POPC    H2S   1941       0.09      1.008
  7674       CTL2    402   POPC     C3   1942       0.08     12.011
  7675       HAL2    402   POPC     HX   1942       0.09      1.008
  7676       HAL2    402   POPC     HY   1942       0.09      1.008
  7677        OSL    402   POPC    O31   1942      -0.49    15.9994
  7678         CL    402   POPC    C31   1942        0.9     12.011
  7679        OBL    402   POPC    O32   1942      -0.63    15.9994
  7680       CTL2    402   POPC    C32   1942      -0.22     12.011
  7681       HAL2    402   POPC    H2X   1942       0.09      1.008
  7682       HAL2    402   POPC    H2Y   1942       0.09      1.008
  7683       CTL2    402   POPC    C23   1943      -0.18     12.011
  7684       HAL2    402   POPC    H3R   1943       0.09      1.008
  7685       HAL2    402   POPC    H3S   1943       0.09      1.008
  7686       CTL2    402   POPC    C24   1944      -0.18     12.011
  7687       HAL2    402   POPC    H4R   1944       0.09      1.008
  7688       HAL2    402   POPC    H4S   1944       0.09      1.008
  7689       CTL2    402   POPC    C25   1945      -0.18     12.011
  7690       HAL2    402   POPC    H5R   1945       0.09      1.008
  7691       HAL2    402   POPC    H5S   1945       0.09      1.008
  7692       CTL2    402   POPC    C26   1946      -0.18     12.011
  7693       HAL2    402   POPC    H6R   1946       0.09      1.008
  7694       HAL2    402   POPC    H6S   1946       0.09      1.008
  7695       CTL2    402   POPC    C27   1947      -0.18     12.011
  7696       HAL2    402   POPC    H7R   1947       0.09      1.008
  7697       HAL2    402   POPC    H7S   1947       0.09      1.008
  7698       CTL2    402   POPC    C28   1948      -0.18     12.011
  7699       HAL2    402   POPC    H8R   1948       0.09      1.008
  7700       HAL2    402   POPC    H8S   1948       0.09      1.008
  7701       CEL1    402   POPC    C29   1949      -0.15     12.011
  7702       HEL1    402   POPC    H91   1949       0.15      1.008
  7703       CEL1    402   POPC   C210   1950      -0.15     12.011
  7704       HEL1    402   POPC   H101   1950       0.15      1.008
  7705       CTL2    402   POPC   C211   1951      -0.18     12.011
  7706       HAL2    402   POPC   H11R   1951       0.09      1.008
  7707       HAL2    402   POPC   H11S   1951       0.09      1.008
  7708       CTL2    402   POPC   C212   1952      -0.18     12.011
  7709       HAL2    402   POPC   H12R   1952       0.09      1.008
  7710       HAL2    402   POPC   H12S   1952       0.09      1.008
  7711       CTL2    402   POPC   C213   1953      -0.18     12.011
  7712       HAL2    402   POPC   H13R   1953       0.09      1.008
  7713       HAL2    402   POPC   H13S   1953       0.09      1.008
  7714       CTL2    402   POPC   C214   1954      -0.18     12.011
  7715       HAL2    402   POPC   H14R   1954       0.09      1.008
  7716       HAL2    402   POPC   H14S   1954       0.09      1.008
  7717       CTL2    402   POPC   C215   1955      -0.18     12.011
  7718       HAL2    402   POPC   H15R   1955       0.09      1.008
  7719       HAL2    402   POPC   H15S   1955       0.09      1.008
  7720       CTL2    402   POPC   C216   1956      -0.18     12.011
  7721       HAL2    402   POPC   H16R   1956       0.09      1.008
  7722       HAL2    402   POPC   H16S   1956       0.09      1.008
  7723       CTL2    402   POPC   C217   1957      -0.18     12.011
  7724       HAL2    402   POPC   H17R   1957       0.09      1.008
  7725       HAL2    402   POPC   H17S   1957       0.09      1.008
  7726       CTL3    402   POPC   C218   1958      -0.27     12.011
  7727       HAL3    402   POPC   H18R   1958       0.09      1.008
  7728       HAL3    402   POPC   H18S   1958       0.09      1.008
  7729       HAL3    402   POPC   H18T   1958       0.09      1.008
  7730       CTL2    402   POPC    C33   1959      -0.18     12.011
  7731       HAL2    402   POPC    H3X   1959       0.09      1.008
  7732       HAL2    402   POPC    H3Y   1959       0.09      1.008
  7733       CTL2    402   POPC    C34   1960      -0.18     12.011
  7734       HAL2    402   POPC    H4X   1960       0.09      1.008
  7735       HAL2    402   POPC    H4Y   1960       0.09      1.008
  7736       CTL2    402   POPC    C35   1961      -0.18     12.011
  7737       HAL2    402   POPC    H5X   1961       0.09      1.008
  7738       HAL2    402   POPC    H5Y   1961       0.09      1.008
  7739       CTL2    402   POPC    C36   1962      -0.18     12.011
  7740       HAL2    402   POPC    H6X   1962       0.09      1.008
  7741       HAL2    402   POPC    H6Y   1962       0.09      1.008
  7742       CTL2    402   POPC    C37   1963      -0.18     12.011
  7743       HAL2    402   POPC    H7X   1963       0.09      1.008
  7744       HAL2    402   POPC    H7Y   1963       0.09      1.008
  7745       CTL2    402   POPC    C38   1964      -0.18     12.011
  7746       HAL2    402   POPC    H8X   1964       0.09      1.008
  7747       HAL2    402   POPC    H8Y   1964       0.09      1.008
  7748       CTL2    402   POPC    C39   1965      -0.18     12.011
  7749       HAL2    402   POPC    H9X   1965       0.09      1.008
  7750       HAL2    402   POPC    H9Y   1965       0.09      1.008
  7751       CTL2    402   POPC   C310   1966      -0.18     12.011
  7752       HAL2    402   POPC   H10X   1966       0.09      1.008
  7753       HAL2    402   POPC   H10Y   1966       0.09      1.008
  7754       CTL2    402   POPC   C311   1967      -0.18     12.011
  7755       HAL2    402   POPC   H11X   1967       0.09      1.008
  7756       HAL2    402   POPC   H11Y   1967       0.09      1.008
  7757       CTL2    402   POPC   C312   1968      -0.18     12.011
  7758       HAL2    402   POPC   H12X   1968       0.09      1.008
  7759       HAL2    402   POPC   H12Y   1968       0.09      1.008
  7760       CTL2    402   POPC   C313   1969      -0.18     12.011
  7761       HAL2    402   POPC   H13X   1969       0.09      1.008
  7762       HAL2    402   POPC   H13Y   1969       0.09      1.008
  7763       CTL2    402   POPC   C314   1970      -0.18     12.011
  7764       HAL2    402   POPC   H14X   1970       0.09      1.008
  7765       HAL2    402   POPC   H14Y   1970       0.09      1.008
  7766       CTL2    402   POPC   C315   1971      -0.18     12.011
  7767       HAL2    402   POPC   H15X   1971       0.09      1.008
  7768       HAL2    402   POPC   H15Y   1971       0.09      1.008
  7769       CTL3    402   POPC   C316   1972      -0.27     12.011
  7770       HAL3    402   POPC   H16X   1972       0.09      1.008
  7771       HAL3    402   POPC   H16Y   1972       0.09      1.008
  7772       HAL3    402   POPC   H16Z   1972       0.09      1.008   ; qtot 0
; residue 403 POPC rtp POPC q  0.0
  7773        NTL    403   POPC      N   1973       -0.6     14.007
  7774       CTL2    403   POPC    C12   1973       -0.1     12.011
  7775         HL    403   POPC   H12A   1973       0.25      1.008
  7776         HL    403   POPC   H12B   1973       0.25      1.008
  7777       CTL5    403   POPC    C13   1973      -0.35     12.011
  7778         HL    403   POPC   H13A   1973       0.25      1.008
  7779         HL    403   POPC   H13B   1973       0.25      1.008
  7780         HL    403   POPC   H13C   1973       0.25      1.008
  7781       CTL5    403   POPC    C14   1973      -0.35     12.011
  7782         HL    403   POPC   H14A   1973       0.25      1.008
  7783         HL    403   POPC   H14B   1973       0.25      1.008
  7784         HL    403   POPC   H14C   1973       0.25      1.008
  7785       CTL5    403   POPC    C15   1973      -0.35     12.011
  7786         HL    403   POPC   H15A   1973       0.25      1.008
  7787         HL    403   POPC   H15B   1973       0.25      1.008
  7788         HL    403   POPC   H15C   1973       0.25      1.008
  7789       CTL2    403   POPC    C11   1974      -0.08     12.011
  7790       HAL2    403   POPC   H11A   1974       0.09      1.008
  7791       HAL2    403   POPC   H11B   1974       0.09      1.008
  7792         PL    403   POPC      P   1974        1.5     30.974
  7793        O2L    403   POPC    O13   1974      -0.78    15.9994
  7794        O2L    403   POPC    O14   1974      -0.78    15.9994
  7795       OSLP    403   POPC    O12   1974      -0.57    15.9994
  7796       OSLP    403   POPC    O11   1974      -0.57    15.9994
  7797       CTL2    403   POPC     C1   1974      -0.08     12.011
  7798       HAL2    403   POPC     HA   1974       0.09      1.008
  7799       HAL2    403   POPC     HB   1974       0.09      1.008
  7800       CTL1    403   POPC     C2   1975       0.17     12.011
  7801       HAL1    403   POPC     HS   1975       0.09      1.008
  7802        OSL    403   POPC    O21   1975      -0.49    15.9994
  7803         CL    403   POPC    C21   1975        0.9     12.011
  7804        OBL    403   POPC    O22   1975      -0.63    15.9994
  7805       CTL2    403   POPC    C22   1975      -0.22     12.011
  7806       HAL2    403   POPC    H2R   1975       0.09      1.008
  7807       HAL2    403   POPC    H2S   1975       0.09      1.008
  7808       CTL2    403   POPC     C3   1976       0.08     12.011
  7809       HAL2    403   POPC     HX   1976       0.09      1.008
  7810       HAL2    403   POPC     HY   1976       0.09      1.008
  7811        OSL    403   POPC    O31   1976      -0.49    15.9994
  7812         CL    403   POPC    C31   1976        0.9     12.011
  7813        OBL    403   POPC    O32   1976      -0.63    15.9994
  7814       CTL2    403   POPC    C32   1976      -0.22     12.011
  7815       HAL2    403   POPC    H2X   1976       0.09      1.008
  7816       HAL2    403   POPC    H2Y   1976       0.09      1.008
  7817       CTL2    403   POPC    C23   1977      -0.18     12.011
  7818       HAL2    403   POPC    H3R   1977       0.09      1.008
  7819       HAL2    403   POPC    H3S   1977       0.09      1.008
  7820       CTL2    403   POPC    C24   1978      -0.18     12.011
  7821       HAL2    403   POPC    H4R   1978       0.09      1.008
  7822       HAL2    403   POPC    H4S   1978       0.09      1.008
  7823       CTL2    403   POPC    C25   1979      -0.18     12.011
  7824       HAL2    403   POPC    H5R   1979       0.09      1.008
  7825       HAL2    403   POPC    H5S   1979       0.09      1.008
  7826       CTL2    403   POPC    C26   1980      -0.18     12.011
  7827       HAL2    403   POPC    H6R   1980       0.09      1.008
  7828       HAL2    403   POPC    H6S   1980       0.09      1.008
  7829       CTL2    403   POPC    C27   1981      -0.18     12.011
  7830       HAL2    403   POPC    H7R   1981       0.09      1.008
  7831       HAL2    403   POPC    H7S   1981       0.09      1.008
  7832       CTL2    403   POPC    C28   1982      -0.18     12.011
  7833       HAL2    403   POPC    H8R   1982       0.09      1.008
  7834       HAL2    403   POPC    H8S   1982       0.09      1.008
  7835       CEL1    403   POPC    C29   1983      -0.15     12.011
  7836       HEL1    403   POPC    H91   1983       0.15      1.008
  7837       CEL1    403   POPC   C210   1984      -0.15     12.011
  7838       HEL1    403   POPC   H101   1984       0.15      1.008
  7839       CTL2    403   POPC   C211   1985      -0.18     12.011
  7840       HAL2    403   POPC   H11R   1985       0.09      1.008
  7841       HAL2    403   POPC   H11S   1985       0.09      1.008
  7842       CTL2    403   POPC   C212   1986      -0.18     12.011
  7843       HAL2    403   POPC   H12R   1986       0.09      1.008
  7844       HAL2    403   POPC   H12S   1986       0.09      1.008
  7845       CTL2    403   POPC   C213   1987      -0.18     12.011
  7846       HAL2    403   POPC   H13R   1987       0.09      1.008
  7847       HAL2    403   POPC   H13S   1987       0.09      1.008
  7848       CTL2    403   POPC   C214   1988      -0.18     12.011
  7849       HAL2    403   POPC   H14R   1988       0.09      1.008
  7850       HAL2    403   POPC   H14S   1988       0.09      1.008
  7851       CTL2    403   POPC   C215   1989      -0.18     12.011
  7852       HAL2    403   POPC   H15R   1989       0.09      1.008
  7853       HAL2    403   POPC   H15S   1989       0.09      1.008
  7854       CTL2    403   POPC   C216   1990      -0.18     12.011
  7855       HAL2    403   POPC   H16R   1990       0.09      1.008
  7856       HAL2    403   POPC   H16S   1990       0.09      1.008
  7857       CTL2    403   POPC   C217   1991      -0.18     12.011
  7858       HAL2    403   POPC   H17R   1991       0.09      1.008
  7859       HAL2    403   POPC   H17S   1991       0.09      1.008
  7860       CTL3    403   POPC   C218   1992      -0.27     12.011
  7861       HAL3    403   POPC   H18R   1992       0.09      1.008
  7862       HAL3    403   POPC   H18S   1992       0.09      1.008
  7863       HAL3    403   POPC   H18T   1992       0.09      1.008
  7864       CTL2    403   POPC    C33   1993      -0.18     12.011
  7865       HAL2    403   POPC    H3X   1993       0.09      1.008
  7866       HAL2    403   POPC    H3Y   1993       0.09      1.008
  7867       CTL2    403   POPC    C34   1994      -0.18     12.011
  7868       HAL2    403   POPC    H4X   1994       0.09      1.008
  7869       HAL2    403   POPC    H4Y   1994       0.09      1.008
  7870       CTL2    403   POPC    C35   1995      -0.18     12.011
  7871       HAL2    403   POPC    H5X   1995       0.09      1.008
  7872       HAL2    403   POPC    H5Y   1995       0.09      1.008
  7873       CTL2    403   POPC    C36   1996      -0.18     12.011
  7874       HAL2    403   POPC    H6X   1996       0.09      1.008
  7875       HAL2    403   POPC    H6Y   1996       0.09      1.008
  7876       CTL2    403   POPC    C37   1997      -0.18     12.011
  7877       HAL2    403   POPC    H7X   1997       0.09      1.008
  7878       HAL2    403   POPC    H7Y   1997       0.09      1.008
  7879       CTL2    403   POPC    C38   1998      -0.18     12.011
  7880       HAL2    403   POPC    H8X   1998       0.09      1.008
  7881       HAL2    403   POPC    H8Y   1998       0.09      1.008
  7882       CTL2    403   POPC    C39   1999      -0.18     12.011
  7883       HAL2    403   POPC    H9X   1999       0.09      1.008
  7884       HAL2    403   POPC    H9Y   1999       0.09      1.008
  7885       CTL2    403   POPC   C310   2000      -0.18     12.011
  7886       HAL2    403   POPC   H10X   2000       0.09      1.008
  7887       HAL2    403   POPC   H10Y   2000       0.09      1.008
  7888       CTL2    403   POPC   C311   2001      -0.18     12.011
  7889       HAL2    403   POPC   H11X   2001       0.09      1.008
  7890       HAL2    403   POPC   H11Y   2001       0.09      1.008
  7891       CTL2    403   POPC   C312   2002      -0.18     12.011
  7892       HAL2    403   POPC   H12X   2002       0.09      1.008
  7893       HAL2    403   POPC   H12Y   2002       0.09      1.008
  7894       CTL2    403   POPC   C313   2003      -0.18     12.011
  7895       HAL2    403   POPC   H13X   2003       0.09      1.008
  7896       HAL2    403   POPC   H13Y   2003       0.09      1.008
  7897       CTL2    403   POPC   C314   2004      -0.18     12.011
  7898       HAL2    403   POPC   H14X   2004       0.09      1.008
  7899       HAL2    403   POPC   H14Y   2004       0.09      1.008
  7900       CTL2    403   POPC   C315   2005      -0.18     12.011
  7901       HAL2    403   POPC   H15X   2005       0.09      1.008
  7902       HAL2    403   POPC   H15Y   2005       0.09      1.008
  7903       CTL3    403   POPC   C316   2006      -0.27     12.011
  7904       HAL3    403   POPC   H16X   2006       0.09      1.008
  7905       HAL3    403   POPC   H16Y   2006       0.09      1.008
  7906       HAL3    403   POPC   H16Z   2006       0.09      1.008   ; qtot 0
; residue 404 POPC rtp POPC q  0.0
  7907        NTL    404   POPC      N   2007       -0.6     14.007
  7908       CTL2    404   POPC    C12   2007       -0.1     12.011
  7909         HL    404   POPC   H12A   2007       0.25      1.008
  7910         HL    404   POPC   H12B   2007       0.25      1.008
  7911       CTL5    404   POPC    C13   2007      -0.35     12.011
  7912         HL    404   POPC   H13A   2007       0.25      1.008
  7913         HL    404   POPC   H13B   2007       0.25      1.008
  7914         HL    404   POPC   H13C   2007       0.25      1.008
  7915       CTL5    404   POPC    C14   2007      -0.35     12.011
  7916         HL    404   POPC   H14A   2007       0.25      1.008
  7917         HL    404   POPC   H14B   2007       0.25      1.008
  7918         HL    404   POPC   H14C   2007       0.25      1.008
  7919       CTL5    404   POPC    C15   2007      -0.35     12.011
  7920         HL    404   POPC   H15A   2007       0.25      1.008
  7921         HL    404   POPC   H15B   2007       0.25      1.008
  7922         HL    404   POPC   H15C   2007       0.25      1.008
  7923       CTL2    404   POPC    C11   2008      -0.08     12.011
  7924       HAL2    404   POPC   H11A   2008       0.09      1.008
  7925       HAL2    404   POPC   H11B   2008       0.09      1.008
  7926         PL    404   POPC      P   2008        1.5     30.974
  7927        O2L    404   POPC    O13   2008      -0.78    15.9994
  7928        O2L    404   POPC    O14   2008      -0.78    15.9994
  7929       OSLP    404   POPC    O12   2008      -0.57    15.9994
  7930       OSLP    404   POPC    O11   2008      -0.57    15.9994
  7931       CTL2    404   POPC     C1   2008      -0.08     12.011
  7932       HAL2    404   POPC     HA   2008       0.09      1.008
  7933       HAL2    404   POPC     HB   2008       0.09      1.008
  7934       CTL1    404   POPC     C2   2009       0.17     12.011
  7935       HAL1    404   POPC     HS   2009       0.09      1.008
  7936        OSL    404   POPC    O21   2009      -0.49    15.9994
  7937         CL    404   POPC    C21   2009        0.9     12.011
  7938        OBL    404   POPC    O22   2009      -0.63    15.9994
  7939       CTL2    404   POPC    C22   2009      -0.22     12.011
  7940       HAL2    404   POPC    H2R   2009       0.09      1.008
  7941       HAL2    404   POPC    H2S   2009       0.09      1.008
  7942       CTL2    404   POPC     C3   2010       0.08     12.011
  7943       HAL2    404   POPC     HX   2010       0.09      1.008
  7944       HAL2    404   POPC     HY   2010       0.09      1.008
  7945        OSL    404   POPC    O31   2010      -0.49    15.9994
  7946         CL    404   POPC    C31   2010        0.9     12.011
  7947        OBL    404   POPC    O32   2010      -0.63    15.9994
  7948       CTL2    404   POPC    C32   2010      -0.22     12.011
  7949       HAL2    404   POPC    H2X   2010       0.09      1.008
  7950       HAL2    404   POPC    H2Y   2010       0.09      1.008
  7951       CTL2    404   POPC    C23   2011      -0.18     12.011
  7952       HAL2    404   POPC    H3R   2011       0.09      1.008
  7953       HAL2    404   POPC    H3S   2011       0.09      1.008
  7954       CTL2    404   POPC    C24   2012      -0.18     12.011
  7955       HAL2    404   POPC    H4R   2012       0.09      1.008
  7956       HAL2    404   POPC    H4S   2012       0.09      1.008
  7957       CTL2    404   POPC    C25   2013      -0.18     12.011
  7958       HAL2    404   POPC    H5R   2013       0.09      1.008
  7959       HAL2    404   POPC    H5S   2013       0.09      1.008
  7960       CTL2    404   POPC    C26   2014      -0.18     12.011
  7961       HAL2    404   POPC    H6R   2014       0.09      1.008
  7962       HAL2    404   POPC    H6S   2014       0.09      1.008
  7963       CTL2    404   POPC    C27   2015      -0.18     12.011
  7964       HAL2    404   POPC    H7R   2015       0.09      1.008
  7965       HAL2    404   POPC    H7S   2015       0.09      1.008
  7966       CTL2    404   POPC    C28   2016      -0.18     12.011
  7967       HAL2    404   POPC    H8R   2016       0.09      1.008
  7968       HAL2    404   POPC    H8S   2016       0.09      1.008
  7969       CEL1    404   POPC    C29   2017      -0.15     12.011
  7970       HEL1    404   POPC    H91   2017       0.15      1.008
  7971       CEL1    404   POPC   C210   2018      -0.15     12.011
  7972       HEL1    404   POPC   H101   2018       0.15      1.008
  7973       CTL2    404   POPC   C211   2019      -0.18     12.011
  7974       HAL2    404   POPC   H11R   2019       0.09      1.008
  7975       HAL2    404   POPC   H11S   2019       0.09      1.008
  7976       CTL2    404   POPC   C212   2020      -0.18     12.011
  7977       HAL2    404   POPC   H12R   2020       0.09      1.008
  7978       HAL2    404   POPC   H12S   2020       0.09      1.008
  7979       CTL2    404   POPC   C213   2021      -0.18     12.011
  7980       HAL2    404   POPC   H13R   2021       0.09      1.008
  7981       HAL2    404   POPC   H13S   2021       0.09      1.008
  7982       CTL2    404   POPC   C214   2022      -0.18     12.011
  7983       HAL2    404   POPC   H14R   2022       0.09      1.008
  7984       HAL2    404   POPC   H14S   2022       0.09      1.008
  7985       CTL2    404   POPC   C215   2023      -0.18     12.011
  7986       HAL2    404   POPC   H15R   2023       0.09      1.008
  7987       HAL2    404   POPC   H15S   2023       0.09      1.008
  7988       CTL2    404   POPC   C216   2024      -0.18     12.011
  7989       HAL2    404   POPC   H16R   2024       0.09      1.008
  7990       HAL2    404   POPC   H16S   2024       0.09      1.008
  7991       CTL2    404   POPC   C217   2025      -0.18     12.011
  7992       HAL2    404   POPC   H17R   2025       0.09      1.008
  7993       HAL2    404   POPC   H17S   2025       0.09      1.008
  7994       CTL3    404   POPC   C218   2026      -0.27     12.011
  7995       HAL3    404   POPC   H18R   2026       0.09      1.008
  7996       HAL3    404   POPC   H18S   2026       0.09      1.008
  7997       HAL3    404   POPC   H18T   2026       0.09      1.008
  7998       CTL2    404   POPC    C33   2027      -0.18     12.011
  7999       HAL2    404   POPC    H3X   2027       0.09      1.008
  8000       HAL2    404   POPC    H3Y   2027       0.09      1.008
  8001       CTL2    404   POPC    C34   2028      -0.18     12.011
  8002       HAL2    404   POPC    H4X   2028       0.09      1.008
  8003       HAL2    404   POPC    H4Y   2028       0.09      1.008
  8004       CTL2    404   POPC    C35   2029      -0.18     12.011
  8005       HAL2    404   POPC    H5X   2029       0.09      1.008
  8006       HAL2    404   POPC    H5Y   2029       0.09      1.008
  8007       CTL2    404   POPC    C36   2030      -0.18     12.011
  8008       HAL2    404   POPC    H6X   2030       0.09      1.008
  8009       HAL2    404   POPC    H6Y   2030       0.09      1.008
  8010       CTL2    404   POPC    C37   2031      -0.18     12.011
  8011       HAL2    404   POPC    H7X   2031       0.09      1.008
  8012       HAL2    404   POPC    H7Y   2031       0.09      1.008
  8013       CTL2    404   POPC    C38   2032      -0.18     12.011
  8014       HAL2    404   POPC    H8X   2032       0.09      1.008
  8015       HAL2    404   POPC    H8Y   2032       0.09      1.008
  8016       CTL2    404   POPC    C39   2033      -0.18     12.011
  8017       HAL2    404   POPC    H9X   2033       0.09      1.008
  8018       HAL2    404   POPC    H9Y   2033       0.09      1.008
  8019       CTL2    404   POPC   C310   2034      -0.18     12.011
  8020       HAL2    404   POPC   H10X   2034       0.09      1.008
  8021       HAL2    404   POPC   H10Y   2034       0.09      1.008
  8022       CTL2    404   POPC   C311   2035      -0.18     12.011
  8023       HAL2    404   POPC   H11X   2035       0.09      1.008
  8024       HAL2    404   POPC   H11Y   2035       0.09      1.008
  8025       CTL2    404   POPC   C312   2036      -0.18     12.011
  8026       HAL2    404   POPC   H12X   2036       0.09      1.008
  8027       HAL2    404   POPC   H12Y   2036       0.09      1.008
  8028       CTL2    404   POPC   C313   2037      -0.18     12.011
  8029       HAL2    404   POPC   H13X   2037       0.09      1.008
  8030       HAL2    404   POPC   H13Y   2037       0.09      1.008
  8031       CTL2    404   POPC   C314   2038      -0.18     12.011
  8032       HAL2    404   POPC   H14X   2038       0.09      1.008
  8033       HAL2    404   POPC   H14Y   2038       0.09      1.008
  8034       CTL2    404   POPC   C315   2039      -0.18     12.011
  8035       HAL2    404   POPC   H15X   2039       0.09      1.008
  8036       HAL2    404   POPC   H15Y   2039       0.09      1.008
  8037       CTL3    404   POPC   C316   2040      -0.27     12.011
  8038       HAL3    404   POPC   H16X   2040       0.09      1.008
  8039       HAL3    404   POPC   H16Y   2040       0.09      1.008
  8040       HAL3    404   POPC   H16Z   2040       0.09      1.008   ; qtot 0
; residue 405 POPC rtp POPC q  0.0
  8041        NTL    405   POPC      N   2041       -0.6     14.007
  8042       CTL2    405   POPC    C12   2041       -0.1     12.011
  8043         HL    405   POPC   H12A   2041       0.25      1.008
  8044         HL    405   POPC   H12B   2041       0.25      1.008
  8045       CTL5    405   POPC    C13   2041      -0.35     12.011
  8046         HL    405   POPC   H13A   2041       0.25      1.008
  8047         HL    405   POPC   H13B   2041       0.25      1.008
  8048         HL    405   POPC   H13C   2041       0.25      1.008
  8049       CTL5    405   POPC    C14   2041      -0.35     12.011
  8050         HL    405   POPC   H14A   2041       0.25      1.008
  8051         HL    405   POPC   H14B   2041       0.25      1.008
  8052         HL    405   POPC   H14C   2041       0.25      1.008
  8053       CTL5    405   POPC    C15   2041      -0.35     12.011
  8054         HL    405   POPC   H15A   2041       0.25      1.008
  8055         HL    405   POPC   H15B   2041       0.25      1.008
  8056         HL    405   POPC   H15C   2041       0.25      1.008
  8057       CTL2    405   POPC    C11   2042      -0.08     12.011
  8058       HAL2    405   POPC   H11A   2042       0.09      1.008
  8059       HAL2    405   POPC   H11B   2042       0.09      1.008
  8060         PL    405   POPC      P   2042        1.5     30.974
  8061        O2L    405   POPC    O13   2042      -0.78    15.9994
  8062        O2L    405   POPC    O14   2042      -0.78    15.9994
  8063       OSLP    405   POPC    O12   2042      -0.57    15.9994
  8064       OSLP    405   POPC    O11   2042      -0.57    15.9994
  8065       CTL2    405   POPC     C1   2042      -0.08     12.011
  8066       HAL2    405   POPC     HA   2042       0.09      1.008
  8067       HAL2    405   POPC     HB   2042       0.09      1.008
  8068       CTL1    405   POPC     C2   2043       0.17     12.011
  8069       HAL1    405   POPC     HS   2043       0.09      1.008
  8070        OSL    405   POPC    O21   2043      -0.49    15.9994
  8071         CL    405   POPC    C21   2043        0.9     12.011
  8072        OBL    405   POPC    O22   2043      -0.63    15.9994
  8073       CTL2    405   POPC    C22   2043      -0.22     12.011
  8074       HAL2    405   POPC    H2R   2043       0.09      1.008
  8075       HAL2    405   POPC    H2S   2043       0.09      1.008
  8076       CTL2    405   POPC     C3   2044       0.08     12.011
  8077       HAL2    405   POPC     HX   2044       0.09      1.008
  8078       HAL2    405   POPC     HY   2044       0.09      1.008
  8079        OSL    405   POPC    O31   2044      -0.49    15.9994
  8080         CL    405   POPC    C31   2044        0.9     12.011
  8081        OBL    405   POPC    O32   2044      -0.63    15.9994
  8082       CTL2    405   POPC    C32   2044      -0.22     12.011
  8083       HAL2    405   POPC    H2X   2044       0.09      1.008
  8084       HAL2    405   POPC    H2Y   2044       0.09      1.008
  8085       CTL2    405   POPC    C23   2045      -0.18     12.011
  8086       HAL2    405   POPC    H3R   2045       0.09      1.008
  8087       HAL2    405   POPC    H3S   2045       0.09      1.008
  8088       CTL2    405   POPC    C24   2046      -0.18     12.011
  8089       HAL2    405   POPC    H4R   2046       0.09      1.008
  8090       HAL2    405   POPC    H4S   2046       0.09      1.008
  8091       CTL2    405   POPC    C25   2047      -0.18     12.011
  8092       HAL2    405   POPC    H5R   2047       0.09      1.008
  8093       HAL2    405   POPC    H5S   2047       0.09      1.008
  8094       CTL2    405   POPC    C26   2048      -0.18     12.011
  8095       HAL2    405   POPC    H6R   2048       0.09      1.008
  8096       HAL2    405   POPC    H6S   2048       0.09      1.008
  8097       CTL2    405   POPC    C27   2049      -0.18     12.011
  8098       HAL2    405   POPC    H7R   2049       0.09      1.008
  8099       HAL2    405   POPC    H7S   2049       0.09      1.008
  8100       CTL2    405   POPC    C28   2050      -0.18     12.011
  8101       HAL2    405   POPC    H8R   2050       0.09      1.008
  8102       HAL2    405   POPC    H8S   2050       0.09      1.008
  8103       CEL1    405   POPC    C29   2051      -0.15     12.011
  8104       HEL1    405   POPC    H91   2051       0.15      1.008
  8105       CEL1    405   POPC   C210   2052      -0.15     12.011
  8106       HEL1    405   POPC   H101   2052       0.15      1.008
  8107       CTL2    405   POPC   C211   2053      -0.18     12.011
  8108       HAL2    405   POPC   H11R   2053       0.09      1.008
  8109       HAL2    405   POPC   H11S   2053       0.09      1.008
  8110       CTL2    405   POPC   C212   2054      -0.18     12.011
  8111       HAL2    405   POPC   H12R   2054       0.09      1.008
  8112       HAL2    405   POPC   H12S   2054       0.09      1.008
  8113       CTL2    405   POPC   C213   2055      -0.18     12.011
  8114       HAL2    405   POPC   H13R   2055       0.09      1.008
  8115       HAL2    405   POPC   H13S   2055       0.09      1.008
  8116       CTL2    405   POPC   C214   2056      -0.18     12.011
  8117       HAL2    405   POPC   H14R   2056       0.09      1.008
  8118       HAL2    405   POPC   H14S   2056       0.09      1.008
  8119       CTL2    405   POPC   C215   2057      -0.18     12.011
  8120       HAL2    405   POPC   H15R   2057       0.09      1.008
  8121       HAL2    405   POPC   H15S   2057       0.09      1.008
  8122       CTL2    405   POPC   C216   2058      -0.18     12.011
  8123       HAL2    405   POPC   H16R   2058       0.09      1.008
  8124       HAL2    405   POPC   H16S   2058       0.09      1.008
  8125       CTL2    405   POPC   C217   2059      -0.18     12.011
  8126       HAL2    405   POPC   H17R   2059       0.09      1.008
  8127       HAL2    405   POPC   H17S   2059       0.09      1.008
  8128       CTL3    405   POPC   C218   2060      -0.27     12.011
  8129       HAL3    405   POPC   H18R   2060       0.09      1.008
  8130       HAL3    405   POPC   H18S   2060       0.09      1.008
  8131       HAL3    405   POPC   H18T   2060       0.09      1.008
  8132       CTL2    405   POPC    C33   2061      -0.18     12.011
  8133       HAL2    405   POPC    H3X   2061       0.09      1.008
  8134       HAL2    405   POPC    H3Y   2061       0.09      1.008
  8135       CTL2    405   POPC    C34   2062      -0.18     12.011
  8136       HAL2    405   POPC    H4X   2062       0.09      1.008
  8137       HAL2    405   POPC    H4Y   2062       0.09      1.008
  8138       CTL2    405   POPC    C35   2063      -0.18     12.011
  8139       HAL2    405   POPC    H5X   2063       0.09      1.008
  8140       HAL2    405   POPC    H5Y   2063       0.09      1.008
  8141       CTL2    405   POPC    C36   2064      -0.18     12.011
  8142       HAL2    405   POPC    H6X   2064       0.09      1.008
  8143       HAL2    405   POPC    H6Y   2064       0.09      1.008
  8144       CTL2    405   POPC    C37   2065      -0.18     12.011
  8145       HAL2    405   POPC    H7X   2065       0.09      1.008
  8146       HAL2    405   POPC    H7Y   2065       0.09      1.008
  8147       CTL2    405   POPC    C38   2066      -0.18     12.011
  8148       HAL2    405   POPC    H8X   2066       0.09      1.008
  8149       HAL2    405   POPC    H8Y   2066       0.09      1.008
  8150       CTL2    405   POPC    C39   2067      -0.18     12.011
  8151       HAL2    405   POPC    H9X   2067       0.09      1.008
  8152       HAL2    405   POPC    H9Y   2067       0.09      1.008
  8153       CTL2    405   POPC   C310   2068      -0.18     12.011
  8154       HAL2    405   POPC   H10X   2068       0.09      1.008
  8155       HAL2    405   POPC   H10Y   2068       0.09      1.008
  8156       CTL2    405   POPC   C311   2069      -0.18     12.011
  8157       HAL2    405   POPC   H11X   2069       0.09      1.008
  8158       HAL2    405   POPC   H11Y   2069       0.09      1.008
  8159       CTL2    405   POPC   C312   2070      -0.18     12.011
  8160       HAL2    405   POPC   H12X   2070       0.09      1.008
  8161       HAL2    405   POPC   H12Y   2070       0.09      1.008
  8162       CTL2    405   POPC   C313   2071      -0.18     12.011
  8163       HAL2    405   POPC   H13X   2071       0.09      1.008
  8164       HAL2    405   POPC   H13Y   2071       0.09      1.008
  8165       CTL2    405   POPC   C314   2072      -0.18     12.011
  8166       HAL2    405   POPC   H14X   2072       0.09      1.008
  8167       HAL2    405   POPC   H14Y   2072       0.09      1.008
  8168       CTL2    405   POPC   C315   2073      -0.18     12.011
  8169       HAL2    405   POPC   H15X   2073       0.09      1.008
  8170       HAL2    405   POPC   H15Y   2073       0.09      1.008
  8171       CTL3    405   POPC   C316   2074      -0.27     12.011
  8172       HAL3    405   POPC   H16X   2074       0.09      1.008
  8173       HAL3    405   POPC   H16Y   2074       0.09      1.008
  8174       HAL3    405   POPC   H16Z   2074       0.09      1.008   ; qtot 0
; residue 406 POPC rtp POPC q  0.0
  8175        NTL    406   POPC      N   2075       -0.6     14.007
  8176       CTL2    406   POPC    C12   2075       -0.1     12.011
  8177         HL    406   POPC   H12A   2075       0.25      1.008
  8178         HL    406   POPC   H12B   2075       0.25      1.008
  8179       CTL5    406   POPC    C13   2075      -0.35     12.011
  8180         HL    406   POPC   H13A   2075       0.25      1.008
  8181         HL    406   POPC   H13B   2075       0.25      1.008
  8182         HL    406   POPC   H13C   2075       0.25      1.008
  8183       CTL5    406   POPC    C14   2075      -0.35     12.011
  8184         HL    406   POPC   H14A   2075       0.25      1.008
  8185         HL    406   POPC   H14B   2075       0.25      1.008
  8186         HL    406   POPC   H14C   2075       0.25      1.008
  8187       CTL5    406   POPC    C15   2075      -0.35     12.011
  8188         HL    406   POPC   H15A   2075       0.25      1.008
  8189         HL    406   POPC   H15B   2075       0.25      1.008
  8190         HL    406   POPC   H15C   2075       0.25      1.008
  8191       CTL2    406   POPC    C11   2076      -0.08     12.011
  8192       HAL2    406   POPC   H11A   2076       0.09      1.008
  8193       HAL2    406   POPC   H11B   2076       0.09      1.008
  8194         PL    406   POPC      P   2076        1.5     30.974
  8195        O2L    406   POPC    O13   2076      -0.78    15.9994
  8196        O2L    406   POPC    O14   2076      -0.78    15.9994
  8197       OSLP    406   POPC    O12   2076      -0.57    15.9994
  8198       OSLP    406   POPC    O11   2076      -0.57    15.9994
  8199       CTL2    406   POPC     C1   2076      -0.08     12.011
  8200       HAL2    406   POPC     HA   2076       0.09      1.008
  8201       HAL2    406   POPC     HB   2076       0.09      1.008
  8202       CTL1    406   POPC     C2   2077       0.17     12.011
  8203       HAL1    406   POPC     HS   2077       0.09      1.008
  8204        OSL    406   POPC    O21   2077      -0.49    15.9994
  8205         CL    406   POPC    C21   2077        0.9     12.011
  8206        OBL    406   POPC    O22   2077      -0.63    15.9994
  8207       CTL2    406   POPC    C22   2077      -0.22     12.011
  8208       HAL2    406   POPC    H2R   2077       0.09      1.008
  8209       HAL2    406   POPC    H2S   2077       0.09      1.008
  8210       CTL2    406   POPC     C3   2078       0.08     12.011
  8211       HAL2    406   POPC     HX   2078       0.09      1.008
  8212       HAL2    406   POPC     HY   2078       0.09      1.008
  8213        OSL    406   POPC    O31   2078      -0.49    15.9994
  8214         CL    406   POPC    C31   2078        0.9     12.011
  8215        OBL    406   POPC    O32   2078      -0.63    15.9994
  8216       CTL2    406   POPC    C32   2078      -0.22     12.011
  8217       HAL2    406   POPC    H2X   2078       0.09      1.008
  8218       HAL2    406   POPC    H2Y   2078       0.09      1.008
  8219       CTL2    406   POPC    C23   2079      -0.18     12.011
  8220       HAL2    406   POPC    H3R   2079       0.09      1.008
  8221       HAL2    406   POPC    H3S   2079       0.09      1.008
  8222       CTL2    406   POPC    C24   2080      -0.18     12.011
  8223       HAL2    406   POPC    H4R   2080       0.09      1.008
  8224       HAL2    406   POPC    H4S   2080       0.09      1.008
  8225       CTL2    406   POPC    C25   2081      -0.18     12.011
  8226       HAL2    406   POPC    H5R   2081       0.09      1.008
  8227       HAL2    406   POPC    H5S   2081       0.09      1.008
  8228       CTL2    406   POPC    C26   2082      -0.18     12.011
  8229       HAL2    406   POPC    H6R   2082       0.09      1.008
  8230       HAL2    406   POPC    H6S   2082       0.09      1.008
  8231       CTL2    406   POPC    C27   2083      -0.18     12.011
  8232       HAL2    406   POPC    H7R   2083       0.09      1.008
  8233       HAL2    406   POPC    H7S   2083       0.09      1.008
  8234       CTL2    406   POPC    C28   2084      -0.18     12.011
  8235       HAL2    406   POPC    H8R   2084       0.09      1.008
  8236       HAL2    406   POPC    H8S   2084       0.09      1.008
  8237       CEL1    406   POPC    C29   2085      -0.15     12.011
  8238       HEL1    406   POPC    H91   2085       0.15      1.008
  8239       CEL1    406   POPC   C210   2086      -0.15     12.011
  8240       HEL1    406   POPC   H101   2086       0.15      1.008
  8241       CTL2    406   POPC   C211   2087      -0.18     12.011
  8242       HAL2    406   POPC   H11R   2087       0.09      1.008
  8243       HAL2    406   POPC   H11S   2087       0.09      1.008
  8244       CTL2    406   POPC   C212   2088      -0.18     12.011
  8245       HAL2    406   POPC   H12R   2088       0.09      1.008
  8246       HAL2    406   POPC   H12S   2088       0.09      1.008
  8247       CTL2    406   POPC   C213   2089      -0.18     12.011
  8248       HAL2    406   POPC   H13R   2089       0.09      1.008
  8249       HAL2    406   POPC   H13S   2089       0.09      1.008
  8250       CTL2    406   POPC   C214   2090      -0.18     12.011
  8251       HAL2    406   POPC   H14R   2090       0.09      1.008
  8252       HAL2    406   POPC   H14S   2090       0.09      1.008
  8253       CTL2    406   POPC   C215   2091      -0.18     12.011
  8254       HAL2    406   POPC   H15R   2091       0.09      1.008
  8255       HAL2    406   POPC   H15S   2091       0.09      1.008
  8256       CTL2    406   POPC   C216   2092      -0.18     12.011
  8257       HAL2    406   POPC   H16R   2092       0.09      1.008
  8258       HAL2    406   POPC   H16S   2092       0.09      1.008
  8259       CTL2    406   POPC   C217   2093      -0.18     12.011
  8260       HAL2    406   POPC   H17R   2093       0.09      1.008
  8261       HAL2    406   POPC   H17S   2093       0.09      1.008
  8262       CTL3    406   POPC   C218   2094      -0.27     12.011
  8263       HAL3    406   POPC   H18R   2094       0.09      1.008
  8264       HAL3    406   POPC   H18S   2094       0.09      1.008
  8265       HAL3    406   POPC   H18T   2094       0.09      1.008
  8266       CTL2    406   POPC    C33   2095      -0.18     12.011
  8267       HAL2    406   POPC    H3X   2095       0.09      1.008
  8268       HAL2    406   POPC    H3Y   2095       0.09      1.008
  8269       CTL2    406   POPC    C34   2096      -0.18     12.011
  8270       HAL2    406   POPC    H4X   2096       0.09      1.008
  8271       HAL2    406   POPC    H4Y   2096       0.09      1.008
  8272       CTL2    406   POPC    C35   2097      -0.18     12.011
  8273       HAL2    406   POPC    H5X   2097       0.09      1.008
  8274       HAL2    406   POPC    H5Y   2097       0.09      1.008
  8275       CTL2    406   POPC    C36   2098      -0.18     12.011
  8276       HAL2    406   POPC    H6X   2098       0.09      1.008
  8277       HAL2    406   POPC    H6Y   2098       0.09      1.008
  8278       CTL2    406   POPC    C37   2099      -0.18     12.011
  8279       HAL2    406   POPC    H7X   2099       0.09      1.008
  8280       HAL2    406   POPC    H7Y   2099       0.09      1.008
  8281       CTL2    406   POPC    C38   2100      -0.18     12.011
  8282       HAL2    406   POPC    H8X   2100       0.09      1.008
  8283       HAL2    406   POPC    H8Y   2100       0.09      1.008
  8284       CTL2    406   POPC    C39   2101      -0.18     12.011
  8285       HAL2    406   POPC    H9X   2101       0.09      1.008
  8286       HAL2    406   POPC    H9Y   2101       0.09      1.008
  8287       CTL2    406   POPC   C310   2102      -0.18     12.011
  8288       HAL2    406   POPC   H10X   2102       0.09      1.008
  8289       HAL2    406   POPC   H10Y   2102       0.09      1.008
  8290       CTL2    406   POPC   C311   2103      -0.18     12.011
  8291       HAL2    406   POPC   H11X   2103       0.09      1.008
  8292       HAL2    406   POPC   H11Y   2103       0.09      1.008
  8293       CTL2    406   POPC   C312   2104      -0.18     12.011
  8294       HAL2    406   POPC   H12X   2104       0.09      1.008
  8295       HAL2    406   POPC   H12Y   2104       0.09      1.008
  8296       CTL2    406   POPC   C313   2105      -0.18     12.011
  8297       HAL2    406   POPC   H13X   2105       0.09      1.008
  8298       HAL2    406   POPC   H13Y   2105       0.09      1.008
  8299       CTL2    406   POPC   C314   2106      -0.18     12.011
  8300       HAL2    406   POPC   H14X   2106       0.09      1.008
  8301       HAL2    406   POPC   H14Y   2106       0.09      1.008
  8302       CTL2    406   POPC   C315   2107      -0.18     12.011
  8303       HAL2    406   POPC   H15X   2107       0.09      1.008
  8304       HAL2    406   POPC   H15Y   2107       0.09      1.008
  8305       CTL3    406   POPC   C316   2108      -0.27     12.011
  8306       HAL3    406   POPC   H16X   2108       0.09      1.008
  8307       HAL3    406   POPC   H16Y   2108       0.09      1.008
  8308       HAL3    406   POPC   H16Z   2108       0.09      1.008   ; qtot 0
; residue 407 POPC rtp POPC q  0.0
  8309        NTL    407   POPC      N   2109       -0.6     14.007
  8310       CTL2    407   POPC    C12   2109       -0.1     12.011
  8311         HL    407   POPC   H12A   2109       0.25      1.008
  8312         HL    407   POPC   H12B   2109       0.25      1.008
  8313       CTL5    407   POPC    C13   2109      -0.35     12.011
  8314         HL    407   POPC   H13A   2109       0.25      1.008
  8315         HL    407   POPC   H13B   2109       0.25      1.008
  8316         HL    407   POPC   H13C   2109       0.25      1.008
  8317       CTL5    407   POPC    C14   2109      -0.35     12.011
  8318         HL    407   POPC   H14A   2109       0.25      1.008
  8319         HL    407   POPC   H14B   2109       0.25      1.008
  8320         HL    407   POPC   H14C   2109       0.25      1.008
  8321       CTL5    407   POPC    C15   2109      -0.35     12.011
  8322         HL    407   POPC   H15A   2109       0.25      1.008
  8323         HL    407   POPC   H15B   2109       0.25      1.008
  8324         HL    407   POPC   H15C   2109       0.25      1.008
  8325       CTL2    407   POPC    C11   2110      -0.08     12.011
  8326       HAL2    407   POPC   H11A   2110       0.09      1.008
  8327       HAL2    407   POPC   H11B   2110       0.09      1.008
  8328         PL    407   POPC      P   2110        1.5     30.974
  8329        O2L    407   POPC    O13   2110      -0.78    15.9994
  8330        O2L    407   POPC    O14   2110      -0.78    15.9994
  8331       OSLP    407   POPC    O12   2110      -0.57    15.9994
  8332       OSLP    407   POPC    O11   2110      -0.57    15.9994
  8333       CTL2    407   POPC     C1   2110      -0.08     12.011
  8334       HAL2    407   POPC     HA   2110       0.09      1.008
  8335       HAL2    407   POPC     HB   2110       0.09      1.008
  8336       CTL1    407   POPC     C2   2111       0.17     12.011
  8337       HAL1    407   POPC     HS   2111       0.09      1.008
  8338        OSL    407   POPC    O21   2111      -0.49    15.9994
  8339         CL    407   POPC    C21   2111        0.9     12.011
  8340        OBL    407   POPC    O22   2111      -0.63    15.9994
  8341       CTL2    407   POPC    C22   2111      -0.22     12.011
  8342       HAL2    407   POPC    H2R   2111       0.09      1.008
  8343       HAL2    407   POPC    H2S   2111       0.09      1.008
  8344       CTL2    407   POPC     C3   2112       0.08     12.011
  8345       HAL2    407   POPC     HX   2112       0.09      1.008
  8346       HAL2    407   POPC     HY   2112       0.09      1.008
  8347        OSL    407   POPC    O31   2112      -0.49    15.9994
  8348         CL    407   POPC    C31   2112        0.9     12.011
  8349        OBL    407   POPC    O32   2112      -0.63    15.9994
  8350       CTL2    407   POPC    C32   2112      -0.22     12.011
  8351       HAL2    407   POPC    H2X   2112       0.09      1.008
  8352       HAL2    407   POPC    H2Y   2112       0.09      1.008
  8353       CTL2    407   POPC    C23   2113      -0.18     12.011
  8354       HAL2    407   POPC    H3R   2113       0.09      1.008
  8355       HAL2    407   POPC    H3S   2113       0.09      1.008
  8356       CTL2    407   POPC    C24   2114      -0.18     12.011
  8357       HAL2    407   POPC    H4R   2114       0.09      1.008
  8358       HAL2    407   POPC    H4S   2114       0.09      1.008
  8359       CTL2    407   POPC    C25   2115      -0.18     12.011
  8360       HAL2    407   POPC    H5R   2115       0.09      1.008
  8361       HAL2    407   POPC    H5S   2115       0.09      1.008
  8362       CTL2    407   POPC    C26   2116      -0.18     12.011
  8363       HAL2    407   POPC    H6R   2116       0.09      1.008
  8364       HAL2    407   POPC    H6S   2116       0.09      1.008
  8365       CTL2    407   POPC    C27   2117      -0.18     12.011
  8366       HAL2    407   POPC    H7R   2117       0.09      1.008
  8367       HAL2    407   POPC    H7S   2117       0.09      1.008
  8368       CTL2    407   POPC    C28   2118      -0.18     12.011
  8369       HAL2    407   POPC    H8R   2118       0.09      1.008
  8370       HAL2    407   POPC    H8S   2118       0.09      1.008
  8371       CEL1    407   POPC    C29   2119      -0.15     12.011
  8372       HEL1    407   POPC    H91   2119       0.15      1.008
  8373       CEL1    407   POPC   C210   2120      -0.15     12.011
  8374       HEL1    407   POPC   H101   2120       0.15      1.008
  8375       CTL2    407   POPC   C211   2121      -0.18     12.011
  8376       HAL2    407   POPC   H11R   2121       0.09      1.008
  8377       HAL2    407   POPC   H11S   2121       0.09      1.008
  8378       CTL2    407   POPC   C212   2122      -0.18     12.011
  8379       HAL2    407   POPC   H12R   2122       0.09      1.008
  8380       HAL2    407   POPC   H12S   2122       0.09      1.008
  8381       CTL2    407   POPC   C213   2123      -0.18     12.011
  8382       HAL2    407   POPC   H13R   2123       0.09      1.008
  8383       HAL2    407   POPC   H13S   2123       0.09      1.008
  8384       CTL2    407   POPC   C214   2124      -0.18     12.011
  8385       HAL2    407   POPC   H14R   2124       0.09      1.008
  8386       HAL2    407   POPC   H14S   2124       0.09      1.008
  8387       CTL2    407   POPC   C215   2125      -0.18     12.011
  8388       HAL2    407   POPC   H15R   2125       0.09      1.008
  8389       HAL2    407   POPC   H15S   2125       0.09      1.008
  8390       CTL2    407   POPC   C216   2126      -0.18     12.011
  8391       HAL2    407   POPC   H16R   2126       0.09      1.008
  8392       HAL2    407   POPC   H16S   2126       0.09      1.008
  8393       CTL2    407   POPC   C217   2127      -0.18     12.011
  8394       HAL2    407   POPC   H17R   2127       0.09      1.008
  8395       HAL2    407   POPC   H17S   2127       0.09      1.008
  8396       CTL3    407   POPC   C218   2128      -0.27     12.011
  8397       HAL3    407   POPC   H18R   2128       0.09      1.008
  8398       HAL3    407   POPC   H18S   2128       0.09      1.008
  8399       HAL3    407   POPC   H18T   2128       0.09      1.008
  8400       CTL2    407   POPC    C33   2129      -0.18     12.011
  8401       HAL2    407   POPC    H3X   2129       0.09      1.008
  8402       HAL2    407   POPC    H3Y   2129       0.09      1.008
  8403       CTL2    407   POPC    C34   2130      -0.18     12.011
  8404       HAL2    407   POPC    H4X   2130       0.09      1.008
  8405       HAL2    407   POPC    H4Y   2130       0.09      1.008
  8406       CTL2    407   POPC    C35   2131      -0.18     12.011
  8407       HAL2    407   POPC    H5X   2131       0.09      1.008
  8408       HAL2    407   POPC    H5Y   2131       0.09      1.008
  8409       CTL2    407   POPC    C36   2132      -0.18     12.011
  8410       HAL2    407   POPC    H6X   2132       0.09      1.008
  8411       HAL2    407   POPC    H6Y   2132       0.09      1.008
  8412       CTL2    407   POPC    C37   2133      -0.18     12.011
  8413       HAL2    407   POPC    H7X   2133       0.09      1.008
  8414       HAL2    407   POPC    H7Y   2133       0.09      1.008
  8415       CTL2    407   POPC    C38   2134      -0.18     12.011
  8416       HAL2    407   POPC    H8X   2134       0.09      1.008
  8417       HAL2    407   POPC    H8Y   2134       0.09      1.008
  8418       CTL2    407   POPC    C39   2135      -0.18     12.011
  8419       HAL2    407   POPC    H9X   2135       0.09      1.008
  8420       HAL2    407   POPC    H9Y   2135       0.09      1.008
  8421       CTL2    407   POPC   C310   2136      -0.18     12.011
  8422       HAL2    407   POPC   H10X   2136       0.09      1.008
  8423       HAL2    407   POPC   H10Y   2136       0.09      1.008
  8424       CTL2    407   POPC   C311   2137      -0.18     12.011
  8425       HAL2    407   POPC   H11X   2137       0.09      1.008
  8426       HAL2    407   POPC   H11Y   2137       0.09      1.008
  8427       CTL2    407   POPC   C312   2138      -0.18     12.011
  8428       HAL2    407   POPC   H12X   2138       0.09      1.008
  8429       HAL2    407   POPC   H12Y   2138       0.09      1.008
  8430       CTL2    407   POPC   C313   2139      -0.18     12.011
  8431       HAL2    407   POPC   H13X   2139       0.09      1.008
  8432       HAL2    407   POPC   H13Y   2139       0.09      1.008
  8433       CTL2    407   POPC   C314   2140      -0.18     12.011
  8434       HAL2    407   POPC   H14X   2140       0.09      1.008
  8435       HAL2    407   POPC   H14Y   2140       0.09      1.008
  8436       CTL2    407   POPC   C315   2141      -0.18     12.011
  8437       HAL2    407   POPC   H15X   2141       0.09      1.008
  8438       HAL2    407   POPC   H15Y   2141       0.09      1.008
  8439       CTL3    407   POPC   C316   2142      -0.27     12.011
  8440       HAL3    407   POPC   H16X   2142       0.09      1.008
  8441       HAL3    407   POPC   H16Y   2142       0.09      1.008
  8442       HAL3    407   POPC   H16Z   2142       0.09      1.008   ; qtot 0
; residue 408 POPC rtp POPC q  0.0
  8443        NTL    408   POPC      N   2143       -0.6     14.007
  8444       CTL2    408   POPC    C12   2143       -0.1     12.011
  8445         HL    408   POPC   H12A   2143       0.25      1.008
  8446         HL    408   POPC   H12B   2143       0.25      1.008
  8447       CTL5    408   POPC    C13   2143      -0.35     12.011
  8448         HL    408   POPC   H13A   2143       0.25      1.008
  8449         HL    408   POPC   H13B   2143       0.25      1.008
  8450         HL    408   POPC   H13C   2143       0.25      1.008
  8451       CTL5    408   POPC    C14   2143      -0.35     12.011
  8452         HL    408   POPC   H14A   2143       0.25      1.008
  8453         HL    408   POPC   H14B   2143       0.25      1.008
  8454         HL    408   POPC   H14C   2143       0.25      1.008
  8455       CTL5    408   POPC    C15   2143      -0.35     12.011
  8456         HL    408   POPC   H15A   2143       0.25      1.008
  8457         HL    408   POPC   H15B   2143       0.25      1.008
  8458         HL    408   POPC   H15C   2143       0.25      1.008
  8459       CTL2    408   POPC    C11   2144      -0.08     12.011
  8460       HAL2    408   POPC   H11A   2144       0.09      1.008
  8461       HAL2    408   POPC   H11B   2144       0.09      1.008
  8462         PL    408   POPC      P   2144        1.5     30.974
  8463        O2L    408   POPC    O13   2144      -0.78    15.9994
  8464        O2L    408   POPC    O14   2144      -0.78    15.9994
  8465       OSLP    408   POPC    O12   2144      -0.57    15.9994
  8466       OSLP    408   POPC    O11   2144      -0.57    15.9994
  8467       CTL2    408   POPC     C1   2144      -0.08     12.011
  8468       HAL2    408   POPC     HA   2144       0.09      1.008
  8469       HAL2    408   POPC     HB   2144       0.09      1.008
  8470       CTL1    408   POPC     C2   2145       0.17     12.011
  8471       HAL1    408   POPC     HS   2145       0.09      1.008
  8472        OSL    408   POPC    O21   2145      -0.49    15.9994
  8473         CL    408   POPC    C21   2145        0.9     12.011
  8474        OBL    408   POPC    O22   2145      -0.63    15.9994
  8475       CTL2    408   POPC    C22   2145      -0.22     12.011
  8476       HAL2    408   POPC    H2R   2145       0.09      1.008
  8477       HAL2    408   POPC    H2S   2145       0.09      1.008
  8478       CTL2    408   POPC     C3   2146       0.08     12.011
  8479       HAL2    408   POPC     HX   2146       0.09      1.008
  8480       HAL2    408   POPC     HY   2146       0.09      1.008
  8481        OSL    408   POPC    O31   2146      -0.49    15.9994
  8482         CL    408   POPC    C31   2146        0.9     12.011
  8483        OBL    408   POPC    O32   2146      -0.63    15.9994
  8484       CTL2    408   POPC    C32   2146      -0.22     12.011
  8485       HAL2    408   POPC    H2X   2146       0.09      1.008
  8486       HAL2    408   POPC    H2Y   2146       0.09      1.008
  8487       CTL2    408   POPC    C23   2147      -0.18     12.011
  8488       HAL2    408   POPC    H3R   2147       0.09      1.008
  8489       HAL2    408   POPC    H3S   2147       0.09      1.008
  8490       CTL2    408   POPC    C24   2148      -0.18     12.011
  8491       HAL2    408   POPC    H4R   2148       0.09      1.008
  8492       HAL2    408   POPC    H4S   2148       0.09      1.008
  8493       CTL2    408   POPC    C25   2149      -0.18     12.011
  8494       HAL2    408   POPC    H5R   2149       0.09      1.008
  8495       HAL2    408   POPC    H5S   2149       0.09      1.008
  8496       CTL2    408   POPC    C26   2150      -0.18     12.011
  8497       HAL2    408   POPC    H6R   2150       0.09      1.008
  8498       HAL2    408   POPC    H6S   2150       0.09      1.008
  8499       CTL2    408   POPC    C27   2151      -0.18     12.011
  8500       HAL2    408   POPC    H7R   2151       0.09      1.008
  8501       HAL2    408   POPC    H7S   2151       0.09      1.008
  8502       CTL2    408   POPC    C28   2152      -0.18     12.011
  8503       HAL2    408   POPC    H8R   2152       0.09      1.008
  8504       HAL2    408   POPC    H8S   2152       0.09      1.008
  8505       CEL1    408   POPC    C29   2153      -0.15     12.011
  8506       HEL1    408   POPC    H91   2153       0.15      1.008
  8507       CEL1    408   POPC   C210   2154      -0.15     12.011
  8508       HEL1    408   POPC   H101   2154       0.15      1.008
  8509       CTL2    408   POPC   C211   2155      -0.18     12.011
  8510       HAL2    408   POPC   H11R   2155       0.09      1.008
  8511       HAL2    408   POPC   H11S   2155       0.09      1.008
  8512       CTL2    408   POPC   C212   2156      -0.18     12.011
  8513       HAL2    408   POPC   H12R   2156       0.09      1.008
  8514       HAL2    408   POPC   H12S   2156       0.09      1.008
  8515       CTL2    408   POPC   C213   2157      -0.18     12.011
  8516       HAL2    408   POPC   H13R   2157       0.09      1.008
  8517       HAL2    408   POPC   H13S   2157       0.09      1.008
  8518       CTL2    408   POPC   C214   2158      -0.18     12.011
  8519       HAL2    408   POPC   H14R   2158       0.09      1.008
  8520       HAL2    408   POPC   H14S   2158       0.09      1.008
  8521       CTL2    408   POPC   C215   2159      -0.18     12.011
  8522       HAL2    408   POPC   H15R   2159       0.09      1.008
  8523       HAL2    408   POPC   H15S   2159       0.09      1.008
  8524       CTL2    408   POPC   C216   2160      -0.18     12.011
  8525       HAL2    408   POPC   H16R   2160       0.09      1.008
  8526       HAL2    408   POPC   H16S   2160       0.09      1.008
  8527       CTL2    408   POPC   C217   2161      -0.18     12.011
  8528       HAL2    408   POPC   H17R   2161       0.09      1.008
  8529       HAL2    408   POPC   H17S   2161       0.09      1.008
  8530       CTL3    408   POPC   C218   2162      -0.27     12.011
  8531       HAL3    408   POPC   H18R   2162       0.09      1.008
  8532       HAL3    408   POPC   H18S   2162       0.09      1.008
  8533       HAL3    408   POPC   H18T   2162       0.09      1.008
  8534       CTL2    408   POPC    C33   2163      -0.18     12.011
  8535       HAL2    408   POPC    H3X   2163       0.09      1.008
  8536       HAL2    408   POPC    H3Y   2163       0.09      1.008
  8537       CTL2    408   POPC    C34   2164      -0.18     12.011
  8538       HAL2    408   POPC    H4X   2164       0.09      1.008
  8539       HAL2    408   POPC    H4Y   2164       0.09      1.008
  8540       CTL2    408   POPC    C35   2165      -0.18     12.011
  8541       HAL2    408   POPC    H5X   2165       0.09      1.008
  8542       HAL2    408   POPC    H5Y   2165       0.09      1.008
  8543       CTL2    408   POPC    C36   2166      -0.18     12.011
  8544       HAL2    408   POPC    H6X   2166       0.09      1.008
  8545       HAL2    408   POPC    H6Y   2166       0.09      1.008
  8546       CTL2    408   POPC    C37   2167      -0.18     12.011
  8547       HAL2    408   POPC    H7X   2167       0.09      1.008
  8548       HAL2    408   POPC    H7Y   2167       0.09      1.008
  8549       CTL2    408   POPC    C38   2168      -0.18     12.011
  8550       HAL2    408   POPC    H8X   2168       0.09      1.008
  8551       HAL2    408   POPC    H8Y   2168       0.09      1.008
  8552       CTL2    408   POPC    C39   2169      -0.18     12.011
  8553       HAL2    408   POPC    H9X   2169       0.09      1.008
  8554       HAL2    408   POPC    H9Y   2169       0.09      1.008
  8555       CTL2    408   POPC   C310   2170      -0.18     12.011
  8556       HAL2    408   POPC   H10X   2170       0.09      1.008
  8557       HAL2    408   POPC   H10Y   2170       0.09      1.008
  8558       CTL2    408   POPC   C311   2171      -0.18     12.011
  8559       HAL2    408   POPC   H11X   2171       0.09      1.008
  8560       HAL2    408   POPC   H11Y   2171       0.09      1.008
  8561       CTL2    408   POPC   C312   2172      -0.18     12.011
  8562       HAL2    408   POPC   H12X   2172       0.09      1.008
  8563       HAL2    408   POPC   H12Y   2172       0.09      1.008
  8564       CTL2    408   POPC   C313   2173      -0.18     12.011
  8565       HAL2    408   POPC   H13X   2173       0.09      1.008
  8566       HAL2    408   POPC   H13Y   2173       0.09      1.008
  8567       CTL2    408   POPC   C314   2174      -0.18     12.011
  8568       HAL2    408   POPC   H14X   2174       0.09      1.008
  8569       HAL2    408   POPC   H14Y   2174       0.09      1.008
  8570       CTL2    408   POPC   C315   2175      -0.18     12.011
  8571       HAL2    408   POPC   H15X   2175       0.09      1.008
  8572       HAL2    408   POPC   H15Y   2175       0.09      1.008
  8573       CTL3    408   POPC   C316   2176      -0.27     12.011
  8574       HAL3    408   POPC   H16X   2176       0.09      1.008
  8575       HAL3    408   POPC   H16Y   2176       0.09      1.008
  8576       HAL3    408   POPC   H16Z   2176       0.09      1.008   ; qtot 0
; residue 409 POPC rtp POPC q  0.0
  8577        NTL    409   POPC      N   2177       -0.6     14.007
  8578       CTL2    409   POPC    C12   2177       -0.1     12.011
  8579         HL    409   POPC   H12A   2177       0.25      1.008
  8580         HL    409   POPC   H12B   2177       0.25      1.008
  8581       CTL5    409   POPC    C13   2177      -0.35     12.011
  8582         HL    409   POPC   H13A   2177       0.25      1.008
  8583         HL    409   POPC   H13B   2177       0.25      1.008
  8584         HL    409   POPC   H13C   2177       0.25      1.008
  8585       CTL5    409   POPC    C14   2177      -0.35     12.011
  8586         HL    409   POPC   H14A   2177       0.25      1.008
  8587         HL    409   POPC   H14B   2177       0.25      1.008
  8588         HL    409   POPC   H14C   2177       0.25      1.008
  8589       CTL5    409   POPC    C15   2177      -0.35     12.011
  8590         HL    409   POPC   H15A   2177       0.25      1.008
  8591         HL    409   POPC   H15B   2177       0.25      1.008
  8592         HL    409   POPC   H15C   2177       0.25      1.008
  8593       CTL2    409   POPC    C11   2178      -0.08     12.011
  8594       HAL2    409   POPC   H11A   2178       0.09      1.008
  8595       HAL2    409   POPC   H11B   2178       0.09      1.008
  8596         PL    409   POPC      P   2178        1.5     30.974
  8597        O2L    409   POPC    O13   2178      -0.78    15.9994
  8598        O2L    409   POPC    O14   2178      -0.78    15.9994
  8599       OSLP    409   POPC    O12   2178      -0.57    15.9994
  8600       OSLP    409   POPC    O11   2178      -0.57    15.9994
  8601       CTL2    409   POPC     C1   2178      -0.08     12.011
  8602       HAL2    409   POPC     HA   2178       0.09      1.008
  8603       HAL2    409   POPC     HB   2178       0.09      1.008
  8604       CTL1    409   POPC     C2   2179       0.17     12.011
  8605       HAL1    409   POPC     HS   2179       0.09      1.008
  8606        OSL    409   POPC    O21   2179      -0.49    15.9994
  8607         CL    409   POPC    C21   2179        0.9     12.011
  8608        OBL    409   POPC    O22   2179      -0.63    15.9994
  8609       CTL2    409   POPC    C22   2179      -0.22     12.011
  8610       HAL2    409   POPC    H2R   2179       0.09      1.008
  8611       HAL2    409   POPC    H2S   2179       0.09      1.008
  8612       CTL2    409   POPC     C3   2180       0.08     12.011
  8613       HAL2    409   POPC     HX   2180       0.09      1.008
  8614       HAL2    409   POPC     HY   2180       0.09      1.008
  8615        OSL    409   POPC    O31   2180      -0.49    15.9994
  8616         CL    409   POPC    C31   2180        0.9     12.011
  8617        OBL    409   POPC    O32   2180      -0.63    15.9994
  8618       CTL2    409   POPC    C32   2180      -0.22     12.011
  8619       HAL2    409   POPC    H2X   2180       0.09      1.008
  8620       HAL2    409   POPC    H2Y   2180       0.09      1.008
  8621       CTL2    409   POPC    C23   2181      -0.18     12.011
  8622       HAL2    409   POPC    H3R   2181       0.09      1.008
  8623       HAL2    409   POPC    H3S   2181       0.09      1.008
  8624       CTL2    409   POPC    C24   2182      -0.18     12.011
  8625       HAL2    409   POPC    H4R   2182       0.09      1.008
  8626       HAL2    409   POPC    H4S   2182       0.09      1.008
  8627       CTL2    409   POPC    C25   2183      -0.18     12.011
  8628       HAL2    409   POPC    H5R   2183       0.09      1.008
  8629       HAL2    409   POPC    H5S   2183       0.09      1.008
  8630       CTL2    409   POPC    C26   2184      -0.18     12.011
  8631       HAL2    409   POPC    H6R   2184       0.09      1.008
  8632       HAL2    409   POPC    H6S   2184       0.09      1.008
  8633       CTL2    409   POPC    C27   2185      -0.18     12.011
  8634       HAL2    409   POPC    H7R   2185       0.09      1.008
  8635       HAL2    409   POPC    H7S   2185       0.09      1.008
  8636       CTL2    409   POPC    C28   2186      -0.18     12.011
  8637       HAL2    409   POPC    H8R   2186       0.09      1.008
  8638       HAL2    409   POPC    H8S   2186       0.09      1.008
  8639       CEL1    409   POPC    C29   2187      -0.15     12.011
  8640       HEL1    409   POPC    H91   2187       0.15      1.008
  8641       CEL1    409   POPC   C210   2188      -0.15     12.011
  8642       HEL1    409   POPC   H101   2188       0.15      1.008
  8643       CTL2    409   POPC   C211   2189      -0.18     12.011
  8644       HAL2    409   POPC   H11R   2189       0.09      1.008
  8645       HAL2    409   POPC   H11S   2189       0.09      1.008
  8646       CTL2    409   POPC   C212   2190      -0.18     12.011
  8647       HAL2    409   POPC   H12R   2190       0.09      1.008
  8648       HAL2    409   POPC   H12S   2190       0.09      1.008
  8649       CTL2    409   POPC   C213   2191      -0.18     12.011
  8650       HAL2    409   POPC   H13R   2191       0.09      1.008
  8651       HAL2    409   POPC   H13S   2191       0.09      1.008
  8652       CTL2    409   POPC   C214   2192      -0.18     12.011
  8653       HAL2    409   POPC   H14R   2192       0.09      1.008
  8654       HAL2    409   POPC   H14S   2192       0.09      1.008
  8655       CTL2    409   POPC   C215   2193      -0.18     12.011
  8656       HAL2    409   POPC   H15R   2193       0.09      1.008
  8657       HAL2    409   POPC   H15S   2193       0.09      1.008
  8658       CTL2    409   POPC   C216   2194      -0.18     12.011
  8659       HAL2    409   POPC   H16R   2194       0.09      1.008
  8660       HAL2    409   POPC   H16S   2194       0.09      1.008
  8661       CTL2    409   POPC   C217   2195      -0.18     12.011
  8662       HAL2    409   POPC   H17R   2195       0.09      1.008
  8663       HAL2    409   POPC   H17S   2195       0.09      1.008
  8664       CTL3    409   POPC   C218   2196      -0.27     12.011
  8665       HAL3    409   POPC   H18R   2196       0.09      1.008
  8666       HAL3    409   POPC   H18S   2196       0.09      1.008
  8667       HAL3    409   POPC   H18T   2196       0.09      1.008
  8668       CTL2    409   POPC    C33   2197      -0.18     12.011
  8669       HAL2    409   POPC    H3X   2197       0.09      1.008
  8670       HAL2    409   POPC    H3Y   2197       0.09      1.008
  8671       CTL2    409   POPC    C34   2198      -0.18     12.011
  8672       HAL2    409   POPC    H4X   2198       0.09      1.008
  8673       HAL2    409   POPC    H4Y   2198       0.09      1.008
  8674       CTL2    409   POPC    C35   2199      -0.18     12.011
  8675       HAL2    409   POPC    H5X   2199       0.09      1.008
  8676       HAL2    409   POPC    H5Y   2199       0.09      1.008
  8677       CTL2    409   POPC    C36   2200      -0.18     12.011
  8678       HAL2    409   POPC    H6X   2200       0.09      1.008
  8679       HAL2    409   POPC    H6Y   2200       0.09      1.008
  8680       CTL2    409   POPC    C37   2201      -0.18     12.011
  8681       HAL2    409   POPC    H7X   2201       0.09      1.008
  8682       HAL2    409   POPC    H7Y   2201       0.09      1.008
  8683       CTL2    409   POPC    C38   2202      -0.18     12.011
  8684       HAL2    409   POPC    H8X   2202       0.09      1.008
  8685       HAL2    409   POPC    H8Y   2202       0.09      1.008
  8686       CTL2    409   POPC    C39   2203      -0.18     12.011
  8687       HAL2    409   POPC    H9X   2203       0.09      1.008
  8688       HAL2    409   POPC    H9Y   2203       0.09      1.008
  8689       CTL2    409   POPC   C310   2204      -0.18     12.011
  8690       HAL2    409   POPC   H10X   2204       0.09      1.008
  8691       HAL2    409   POPC   H10Y   2204       0.09      1.008
  8692       CTL2    409   POPC   C311   2205      -0.18     12.011
  8693       HAL2    409   POPC   H11X   2205       0.09      1.008
  8694       HAL2    409   POPC   H11Y   2205       0.09      1.008
  8695       CTL2    409   POPC   C312   2206      -0.18     12.011
  8696       HAL2    409   POPC   H12X   2206       0.09      1.008
  8697       HAL2    409   POPC   H12Y   2206       0.09      1.008
  8698       CTL2    409   POPC   C313   2207      -0.18     12.011
  8699       HAL2    409   POPC   H13X   2207       0.09      1.008
  8700       HAL2    409   POPC   H13Y   2207       0.09      1.008
  8701       CTL2    409   POPC   C314   2208      -0.18     12.011
  8702       HAL2    409   POPC   H14X   2208       0.09      1.008
  8703       HAL2    409   POPC   H14Y   2208       0.09      1.008
  8704       CTL2    409   POPC   C315   2209      -0.18     12.011
  8705       HAL2    409   POPC   H15X   2209       0.09      1.008
  8706       HAL2    409   POPC   H15Y   2209       0.09      1.008
  8707       CTL3    409   POPC   C316   2210      -0.27     12.011
  8708       HAL3    409   POPC   H16X   2210       0.09      1.008
  8709       HAL3    409   POPC   H16Y   2210       0.09      1.008
  8710       HAL3    409   POPC   H16Z   2210       0.09      1.008   ; qtot 0
; residue 410 POPC rtp POPC q  0.0
  8711        NTL    410   POPC      N   2211       -0.6     14.007
  8712       CTL2    410   POPC    C12   2211       -0.1     12.011
  8713         HL    410   POPC   H12A   2211       0.25      1.008
  8714         HL    410   POPC   H12B   2211       0.25      1.008
  8715       CTL5    410   POPC    C13   2211      -0.35     12.011
  8716         HL    410   POPC   H13A   2211       0.25      1.008
  8717         HL    410   POPC   H13B   2211       0.25      1.008
  8718         HL    410   POPC   H13C   2211       0.25      1.008
  8719       CTL5    410   POPC    C14   2211      -0.35     12.011
  8720         HL    410   POPC   H14A   2211       0.25      1.008
  8721         HL    410   POPC   H14B   2211       0.25      1.008
  8722         HL    410   POPC   H14C   2211       0.25      1.008
  8723       CTL5    410   POPC    C15   2211      -0.35     12.011
  8724         HL    410   POPC   H15A   2211       0.25      1.008
  8725         HL    410   POPC   H15B   2211       0.25      1.008
  8726         HL    410   POPC   H15C   2211       0.25      1.008
  8727       CTL2    410   POPC    C11   2212      -0.08     12.011
  8728       HAL2    410   POPC   H11A   2212       0.09      1.008
  8729       HAL2    410   POPC   H11B   2212       0.09      1.008
  8730         PL    410   POPC      P   2212        1.5     30.974
  8731        O2L    410   POPC    O13   2212      -0.78    15.9994
  8732        O2L    410   POPC    O14   2212      -0.78    15.9994
  8733       OSLP    410   POPC    O12   2212      -0.57    15.9994
  8734       OSLP    410   POPC    O11   2212      -0.57    15.9994
  8735       CTL2    410   POPC     C1   2212      -0.08     12.011
  8736       HAL2    410   POPC     HA   2212       0.09      1.008
  8737       HAL2    410   POPC     HB   2212       0.09      1.008
  8738       CTL1    410   POPC     C2   2213       0.17     12.011
  8739       HAL1    410   POPC     HS   2213       0.09      1.008
  8740        OSL    410   POPC    O21   2213      -0.49    15.9994
  8741         CL    410   POPC    C21   2213        0.9     12.011
  8742        OBL    410   POPC    O22   2213      -0.63    15.9994
  8743       CTL2    410   POPC    C22   2213      -0.22     12.011
  8744       HAL2    410   POPC    H2R   2213       0.09      1.008
  8745       HAL2    410   POPC    H2S   2213       0.09      1.008
  8746       CTL2    410   POPC     C3   2214       0.08     12.011
  8747       HAL2    410   POPC     HX   2214       0.09      1.008
  8748       HAL2    410   POPC     HY   2214       0.09      1.008
  8749        OSL    410   POPC    O31   2214      -0.49    15.9994
  8750         CL    410   POPC    C31   2214        0.9     12.011
  8751        OBL    410   POPC    O32   2214      -0.63    15.9994
  8752       CTL2    410   POPC    C32   2214      -0.22     12.011
  8753       HAL2    410   POPC    H2X   2214       0.09      1.008
  8754       HAL2    410   POPC    H2Y   2214       0.09      1.008
  8755       CTL2    410   POPC    C23   2215      -0.18     12.011
  8756       HAL2    410   POPC    H3R   2215       0.09      1.008
  8757       HAL2    410   POPC    H3S   2215       0.09      1.008
  8758       CTL2    410   POPC    C24   2216      -0.18     12.011
  8759       HAL2    410   POPC    H4R   2216       0.09      1.008
  8760       HAL2    410   POPC    H4S   2216       0.09      1.008
  8761       CTL2    410   POPC    C25   2217      -0.18     12.011
  8762       HAL2    410   POPC    H5R   2217       0.09      1.008
  8763       HAL2    410   POPC    H5S   2217       0.09      1.008
  8764       CTL2    410   POPC    C26   2218      -0.18     12.011
  8765       HAL2    410   POPC    H6R   2218       0.09      1.008
  8766       HAL2    410   POPC    H6S   2218       0.09      1.008
  8767       CTL2    410   POPC    C27   2219      -0.18     12.011
  8768       HAL2    410   POPC    H7R   2219       0.09      1.008
  8769       HAL2    410   POPC    H7S   2219       0.09      1.008
  8770       CTL2    410   POPC    C28   2220      -0.18     12.011
  8771       HAL2    410   POPC    H8R   2220       0.09      1.008
  8772       HAL2    410   POPC    H8S   2220       0.09      1.008
  8773       CEL1    410   POPC    C29   2221      -0.15     12.011
  8774       HEL1    410   POPC    H91   2221       0.15      1.008
  8775       CEL1    410   POPC   C210   2222      -0.15     12.011
  8776       HEL1    410   POPC   H101   2222       0.15      1.008
  8777       CTL2    410   POPC   C211   2223      -0.18     12.011
  8778       HAL2    410   POPC   H11R   2223       0.09      1.008
  8779       HAL2    410   POPC   H11S   2223       0.09      1.008
  8780       CTL2    410   POPC   C212   2224      -0.18     12.011
  8781       HAL2    410   POPC   H12R   2224       0.09      1.008
  8782       HAL2    410   POPC   H12S   2224       0.09      1.008
  8783       CTL2    410   POPC   C213   2225      -0.18     12.011
  8784       HAL2    410   POPC   H13R   2225       0.09      1.008
  8785       HAL2    410   POPC   H13S   2225       0.09      1.008
  8786       CTL2    410   POPC   C214   2226      -0.18     12.011
  8787       HAL2    410   POPC   H14R   2226       0.09      1.008
  8788       HAL2    410   POPC   H14S   2226       0.09      1.008
  8789       CTL2    410   POPC   C215   2227      -0.18     12.011
  8790       HAL2    410   POPC   H15R   2227       0.09      1.008
  8791       HAL2    410   POPC   H15S   2227       0.09      1.008
  8792       CTL2    410   POPC   C216   2228      -0.18     12.011
  8793       HAL2    410   POPC   H16R   2228       0.09      1.008
  8794       HAL2    410   POPC   H16S   2228       0.09      1.008
  8795       CTL2    410   POPC   C217   2229      -0.18     12.011
  8796       HAL2    410   POPC   H17R   2229       0.09      1.008
  8797       HAL2    410   POPC   H17S   2229       0.09      1.008
  8798       CTL3    410   POPC   C218   2230      -0.27     12.011
  8799       HAL3    410   POPC   H18R   2230       0.09      1.008
  8800       HAL3    410   POPC   H18S   2230       0.09      1.008
  8801       HAL3    410   POPC   H18T   2230       0.09      1.008
  8802       CTL2    410   POPC    C33   2231      -0.18     12.011
  8803       HAL2    410   POPC    H3X   2231       0.09      1.008
  8804       HAL2    410   POPC    H3Y   2231       0.09      1.008
  8805       CTL2    410   POPC    C34   2232      -0.18     12.011
  8806       HAL2    410   POPC    H4X   2232       0.09      1.008
  8807       HAL2    410   POPC    H4Y   2232       0.09      1.008
  8808       CTL2    410   POPC    C35   2233      -0.18     12.011
  8809       HAL2    410   POPC    H5X   2233       0.09      1.008
  8810       HAL2    410   POPC    H5Y   2233       0.09      1.008
  8811       CTL2    410   POPC    C36   2234      -0.18     12.011
  8812       HAL2    410   POPC    H6X   2234       0.09      1.008
  8813       HAL2    410   POPC    H6Y   2234       0.09      1.008
  8814       CTL2    410   POPC    C37   2235      -0.18     12.011
  8815       HAL2    410   POPC    H7X   2235       0.09      1.008
  8816       HAL2    410   POPC    H7Y   2235       0.09      1.008
  8817       CTL2    410   POPC    C38   2236      -0.18     12.011
  8818       HAL2    410   POPC    H8X   2236       0.09      1.008
  8819       HAL2    410   POPC    H8Y   2236       0.09      1.008
  8820       CTL2    410   POPC    C39   2237      -0.18     12.011
  8821       HAL2    410   POPC    H9X   2237       0.09      1.008
  8822       HAL2    410   POPC    H9Y   2237       0.09      1.008
  8823       CTL2    410   POPC   C310   2238      -0.18     12.011
  8824       HAL2    410   POPC   H10X   2238       0.09      1.008
  8825       HAL2    410   POPC   H10Y   2238       0.09      1.008
  8826       CTL2    410   POPC   C311   2239      -0.18     12.011
  8827       HAL2    410   POPC   H11X   2239       0.09      1.008
  8828       HAL2    410   POPC   H11Y   2239       0.09      1.008
  8829       CTL2    410   POPC   C312   2240      -0.18     12.011
  8830       HAL2    410   POPC   H12X   2240       0.09      1.008
  8831       HAL2    410   POPC   H12Y   2240       0.09      1.008
  8832       CTL2    410   POPC   C313   2241      -0.18     12.011
  8833       HAL2    410   POPC   H13X   2241       0.09      1.008
  8834       HAL2    410   POPC   H13Y   2241       0.09      1.008
  8835       CTL2    410   POPC   C314   2242      -0.18     12.011
  8836       HAL2    410   POPC   H14X   2242       0.09      1.008
  8837       HAL2    410   POPC   H14Y   2242       0.09      1.008
  8838       CTL2    410   POPC   C315   2243      -0.18     12.011
  8839       HAL2    410   POPC   H15X   2243       0.09      1.008
  8840       HAL2    410   POPC   H15Y   2243       0.09      1.008
  8841       CTL3    410   POPC   C316   2244      -0.27     12.011
  8842       HAL3    410   POPC   H16X   2244       0.09      1.008
  8843       HAL3    410   POPC   H16Y   2244       0.09      1.008
  8844       HAL3    410   POPC   H16Z   2244       0.09      1.008   ; qtot 0
; residue 411 POPC rtp POPC q  0.0
  8845        NTL    411   POPC      N   2245       -0.6     14.007
  8846       CTL2    411   POPC    C12   2245       -0.1     12.011
  8847         HL    411   POPC   H12A   2245       0.25      1.008
  8848         HL    411   POPC   H12B   2245       0.25      1.008
  8849       CTL5    411   POPC    C13   2245      -0.35     12.011
  8850         HL    411   POPC   H13A   2245       0.25      1.008
  8851         HL    411   POPC   H13B   2245       0.25      1.008
  8852         HL    411   POPC   H13C   2245       0.25      1.008
  8853       CTL5    411   POPC    C14   2245      -0.35     12.011
  8854         HL    411   POPC   H14A   2245       0.25      1.008
  8855         HL    411   POPC   H14B   2245       0.25      1.008
  8856         HL    411   POPC   H14C   2245       0.25      1.008
  8857       CTL5    411   POPC    C15   2245      -0.35     12.011
  8858         HL    411   POPC   H15A   2245       0.25      1.008
  8859         HL    411   POPC   H15B   2245       0.25      1.008
  8860         HL    411   POPC   H15C   2245       0.25      1.008
  8861       CTL2    411   POPC    C11   2246      -0.08     12.011
  8862       HAL2    411   POPC   H11A   2246       0.09      1.008
  8863       HAL2    411   POPC   H11B   2246       0.09      1.008
  8864         PL    411   POPC      P   2246        1.5     30.974
  8865        O2L    411   POPC    O13   2246      -0.78    15.9994
  8866        O2L    411   POPC    O14   2246      -0.78    15.9994
  8867       OSLP    411   POPC    O12   2246      -0.57    15.9994
  8868       OSLP    411   POPC    O11   2246      -0.57    15.9994
  8869       CTL2    411   POPC     C1   2246      -0.08     12.011
  8870       HAL2    411   POPC     HA   2246       0.09      1.008
  8871       HAL2    411   POPC     HB   2246       0.09      1.008
  8872       CTL1    411   POPC     C2   2247       0.17     12.011
  8873       HAL1    411   POPC     HS   2247       0.09      1.008
  8874        OSL    411   POPC    O21   2247      -0.49    15.9994
  8875         CL    411   POPC    C21   2247        0.9     12.011
  8876        OBL    411   POPC    O22   2247      -0.63    15.9994
  8877       CTL2    411   POPC    C22   2247      -0.22     12.011
  8878       HAL2    411   POPC    H2R   2247       0.09      1.008
  8879       HAL2    411   POPC    H2S   2247       0.09      1.008
  8880       CTL2    411   POPC     C3   2248       0.08     12.011
  8881       HAL2    411   POPC     HX   2248       0.09      1.008
  8882       HAL2    411   POPC     HY   2248       0.09      1.008
  8883        OSL    411   POPC    O31   2248      -0.49    15.9994
  8884         CL    411   POPC    C31   2248        0.9     12.011
  8885        OBL    411   POPC    O32   2248      -0.63    15.9994
  8886       CTL2    411   POPC    C32   2248      -0.22     12.011
  8887       HAL2    411   POPC    H2X   2248       0.09      1.008
  8888       HAL2    411   POPC    H2Y   2248       0.09      1.008
  8889       CTL2    411   POPC    C23   2249      -0.18     12.011
  8890       HAL2    411   POPC    H3R   2249       0.09      1.008
  8891       HAL2    411   POPC    H3S   2249       0.09      1.008
  8892       CTL2    411   POPC    C24   2250      -0.18     12.011
  8893       HAL2    411   POPC    H4R   2250       0.09      1.008
  8894       HAL2    411   POPC    H4S   2250       0.09      1.008
  8895       CTL2    411   POPC    C25   2251      -0.18     12.011
  8896       HAL2    411   POPC    H5R   2251       0.09      1.008
  8897       HAL2    411   POPC    H5S   2251       0.09      1.008
  8898       CTL2    411   POPC    C26   2252      -0.18     12.011
  8899       HAL2    411   POPC    H6R   2252       0.09      1.008
  8900       HAL2    411   POPC    H6S   2252       0.09      1.008
  8901       CTL2    411   POPC    C27   2253      -0.18     12.011
  8902       HAL2    411   POPC    H7R   2253       0.09      1.008
  8903       HAL2    411   POPC    H7S   2253       0.09      1.008
  8904       CTL2    411   POPC    C28   2254      -0.18     12.011
  8905       HAL2    411   POPC    H8R   2254       0.09      1.008
  8906       HAL2    411   POPC    H8S   2254       0.09      1.008
  8907       CEL1    411   POPC    C29   2255      -0.15     12.011
  8908       HEL1    411   POPC    H91   2255       0.15      1.008
  8909       CEL1    411   POPC   C210   2256      -0.15     12.011
  8910       HEL1    411   POPC   H101   2256       0.15      1.008
  8911       CTL2    411   POPC   C211   2257      -0.18     12.011
  8912       HAL2    411   POPC   H11R   2257       0.09      1.008
  8913       HAL2    411   POPC   H11S   2257       0.09      1.008
  8914       CTL2    411   POPC   C212   2258      -0.18     12.011
  8915       HAL2    411   POPC   H12R   2258       0.09      1.008
  8916       HAL2    411   POPC   H12S   2258       0.09      1.008
  8917       CTL2    411   POPC   C213   2259      -0.18     12.011
  8918       HAL2    411   POPC   H13R   2259       0.09      1.008
  8919       HAL2    411   POPC   H13S   2259       0.09      1.008
  8920       CTL2    411   POPC   C214   2260      -0.18     12.011
  8921       HAL2    411   POPC   H14R   2260       0.09      1.008
  8922       HAL2    411   POPC   H14S   2260       0.09      1.008
  8923       CTL2    411   POPC   C215   2261      -0.18     12.011
  8924       HAL2    411   POPC   H15R   2261       0.09      1.008
  8925       HAL2    411   POPC   H15S   2261       0.09      1.008
  8926       CTL2    411   POPC   C216   2262      -0.18     12.011
  8927       HAL2    411   POPC   H16R   2262       0.09      1.008
  8928       HAL2    411   POPC   H16S   2262       0.09      1.008
  8929       CTL2    411   POPC   C217   2263      -0.18     12.011
  8930       HAL2    411   POPC   H17R   2263       0.09      1.008
  8931       HAL2    411   POPC   H17S   2263       0.09      1.008
  8932       CTL3    411   POPC   C218   2264      -0.27     12.011
  8933       HAL3    411   POPC   H18R   2264       0.09      1.008
  8934       HAL3    411   POPC   H18S   2264       0.09      1.008
  8935       HAL3    411   POPC   H18T   2264       0.09      1.008
  8936       CTL2    411   POPC    C33   2265      -0.18     12.011
  8937       HAL2    411   POPC    H3X   2265       0.09      1.008
  8938       HAL2    411   POPC    H3Y   2265       0.09      1.008
  8939       CTL2    411   POPC    C34   2266      -0.18     12.011
  8940       HAL2    411   POPC    H4X   2266       0.09      1.008
  8941       HAL2    411   POPC    H4Y   2266       0.09      1.008
  8942       CTL2    411   POPC    C35   2267      -0.18     12.011
  8943       HAL2    411   POPC    H5X   2267       0.09      1.008
  8944       HAL2    411   POPC    H5Y   2267       0.09      1.008
  8945       CTL2    411   POPC    C36   2268      -0.18     12.011
  8946       HAL2    411   POPC    H6X   2268       0.09      1.008
  8947       HAL2    411   POPC    H6Y   2268       0.09      1.008
  8948       CTL2    411   POPC    C37   2269      -0.18     12.011
  8949       HAL2    411   POPC    H7X   2269       0.09      1.008
  8950       HAL2    411   POPC    H7Y   2269       0.09      1.008
  8951       CTL2    411   POPC    C38   2270      -0.18     12.011
  8952       HAL2    411   POPC    H8X   2270       0.09      1.008
  8953       HAL2    411   POPC    H8Y   2270       0.09      1.008
  8954       CTL2    411   POPC    C39   2271      -0.18     12.011
  8955       HAL2    411   POPC    H9X   2271       0.09      1.008
  8956       HAL2    411   POPC    H9Y   2271       0.09      1.008
  8957       CTL2    411   POPC   C310   2272      -0.18     12.011
  8958       HAL2    411   POPC   H10X   2272       0.09      1.008
  8959       HAL2    411   POPC   H10Y   2272       0.09      1.008
  8960       CTL2    411   POPC   C311   2273      -0.18     12.011
  8961       HAL2    411   POPC   H11X   2273       0.09      1.008
  8962       HAL2    411   POPC   H11Y   2273       0.09      1.008
  8963       CTL2    411   POPC   C312   2274      -0.18     12.011
  8964       HAL2    411   POPC   H12X   2274       0.09      1.008
  8965       HAL2    411   POPC   H12Y   2274       0.09      1.008
  8966       CTL2    411   POPC   C313   2275      -0.18     12.011
  8967       HAL2    411   POPC   H13X   2275       0.09      1.008
  8968       HAL2    411   POPC   H13Y   2275       0.09      1.008
  8969       CTL2    411   POPC   C314   2276      -0.18     12.011
  8970       HAL2    411   POPC   H14X   2276       0.09      1.008
  8971       HAL2    411   POPC   H14Y   2276       0.09      1.008
  8972       CTL2    411   POPC   C315   2277      -0.18     12.011
  8973       HAL2    411   POPC   H15X   2277       0.09      1.008
  8974       HAL2    411   POPC   H15Y   2277       0.09      1.008
  8975       CTL3    411   POPC   C316   2278      -0.27     12.011
  8976       HAL3    411   POPC   H16X   2278       0.09      1.008
  8977       HAL3    411   POPC   H16Y   2278       0.09      1.008
  8978       HAL3    411   POPC   H16Z   2278       0.09      1.008   ; qtot 0
; residue 412 POPC rtp POPC q  0.0
  8979        NTL    412   POPC      N   2279       -0.6     14.007
  8980       CTL2    412   POPC    C12   2279       -0.1     12.011
  8981         HL    412   POPC   H12A   2279       0.25      1.008
  8982         HL    412   POPC   H12B   2279       0.25      1.008
  8983       CTL5    412   POPC    C13   2279      -0.35     12.011
  8984         HL    412   POPC   H13A   2279       0.25      1.008
  8985         HL    412   POPC   H13B   2279       0.25      1.008
  8986         HL    412   POPC   H13C   2279       0.25      1.008
  8987       CTL5    412   POPC    C14   2279      -0.35     12.011
  8988         HL    412   POPC   H14A   2279       0.25      1.008
  8989         HL    412   POPC   H14B   2279       0.25      1.008
  8990         HL    412   POPC   H14C   2279       0.25      1.008
  8991       CTL5    412   POPC    C15   2279      -0.35     12.011
  8992         HL    412   POPC   H15A   2279       0.25      1.008
  8993         HL    412   POPC   H15B   2279       0.25      1.008
  8994         HL    412   POPC   H15C   2279       0.25      1.008
  8995       CTL2    412   POPC    C11   2280      -0.08     12.011
  8996       HAL2    412   POPC   H11A   2280       0.09      1.008
  8997       HAL2    412   POPC   H11B   2280       0.09      1.008
  8998         PL    412   POPC      P   2280        1.5     30.974
  8999        O2L    412   POPC    O13   2280      -0.78    15.9994
  9000        O2L    412   POPC    O14   2280      -0.78    15.9994
  9001       OSLP    412   POPC    O12   2280      -0.57    15.9994
  9002       OSLP    412   POPC    O11   2280      -0.57    15.9994
  9003       CTL2    412   POPC     C1   2280      -0.08     12.011
  9004       HAL2    412   POPC     HA   2280       0.09      1.008
  9005       HAL2    412   POPC     HB   2280       0.09      1.008
  9006       CTL1    412   POPC     C2   2281       0.17     12.011
  9007       HAL1    412   POPC     HS   2281       0.09      1.008
  9008        OSL    412   POPC    O21   2281      -0.49    15.9994
  9009         CL    412   POPC    C21   2281        0.9     12.011
  9010        OBL    412   POPC    O22   2281      -0.63    15.9994
  9011       CTL2    412   POPC    C22   2281      -0.22     12.011
  9012       HAL2    412   POPC    H2R   2281       0.09      1.008
  9013       HAL2    412   POPC    H2S   2281       0.09      1.008
  9014       CTL2    412   POPC     C3   2282       0.08     12.011
  9015       HAL2    412   POPC     HX   2282       0.09      1.008
  9016       HAL2    412   POPC     HY   2282       0.09      1.008
  9017        OSL    412   POPC    O31   2282      -0.49    15.9994
  9018         CL    412   POPC    C31   2282        0.9     12.011
  9019        OBL    412   POPC    O32   2282      -0.63    15.9994
  9020       CTL2    412   POPC    C32   2282      -0.22     12.011
  9021       HAL2    412   POPC    H2X   2282       0.09      1.008
  9022       HAL2    412   POPC    H2Y   2282       0.09      1.008
  9023       CTL2    412   POPC    C23   2283      -0.18     12.011
  9024       HAL2    412   POPC    H3R   2283       0.09      1.008
  9025       HAL2    412   POPC    H3S   2283       0.09      1.008
  9026       CTL2    412   POPC    C24   2284      -0.18     12.011
  9027       HAL2    412   POPC    H4R   2284       0.09      1.008
  9028       HAL2    412   POPC    H4S   2284       0.09      1.008
  9029       CTL2    412   POPC    C25   2285      -0.18     12.011
  9030       HAL2    412   POPC    H5R   2285       0.09      1.008
  9031       HAL2    412   POPC    H5S   2285       0.09      1.008
  9032       CTL2    412   POPC    C26   2286      -0.18     12.011
  9033       HAL2    412   POPC    H6R   2286       0.09      1.008
  9034       HAL2    412   POPC    H6S   2286       0.09      1.008
  9035       CTL2    412   POPC    C27   2287      -0.18     12.011
  9036       HAL2    412   POPC    H7R   2287       0.09      1.008
  9037       HAL2    412   POPC    H7S   2287       0.09      1.008
  9038       CTL2    412   POPC    C28   2288      -0.18     12.011
  9039       HAL2    412   POPC    H8R   2288       0.09      1.008
  9040       HAL2    412   POPC    H8S   2288       0.09      1.008
  9041       CEL1    412   POPC    C29   2289      -0.15     12.011
  9042       HEL1    412   POPC    H91   2289       0.15      1.008
  9043       CEL1    412   POPC   C210   2290      -0.15     12.011
  9044       HEL1    412   POPC   H101   2290       0.15      1.008
  9045       CTL2    412   POPC   C211   2291      -0.18     12.011
  9046       HAL2    412   POPC   H11R   2291       0.09      1.008
  9047       HAL2    412   POPC   H11S   2291       0.09      1.008
  9048       CTL2    412   POPC   C212   2292      -0.18     12.011
  9049       HAL2    412   POPC   H12R   2292       0.09      1.008
  9050       HAL2    412   POPC   H12S   2292       0.09      1.008
  9051       CTL2    412   POPC   C213   2293      -0.18     12.011
  9052       HAL2    412   POPC   H13R   2293       0.09      1.008
  9053       HAL2    412   POPC   H13S   2293       0.09      1.008
  9054       CTL2    412   POPC   C214   2294      -0.18     12.011
  9055       HAL2    412   POPC   H14R   2294       0.09      1.008
  9056       HAL2    412   POPC   H14S   2294       0.09      1.008
  9057       CTL2    412   POPC   C215   2295      -0.18     12.011
  9058       HAL2    412   POPC   H15R   2295       0.09      1.008
  9059       HAL2    412   POPC   H15S   2295       0.09      1.008
  9060       CTL2    412   POPC   C216   2296      -0.18     12.011
  9061       HAL2    412   POPC   H16R   2296       0.09      1.008
  9062       HAL2    412   POPC   H16S   2296       0.09      1.008
  9063       CTL2    412   POPC   C217   2297      -0.18     12.011
  9064       HAL2    412   POPC   H17R   2297       0.09      1.008
  9065       HAL2    412   POPC   H17S   2297       0.09      1.008
  9066       CTL3    412   POPC   C218   2298      -0.27     12.011
  9067       HAL3    412   POPC   H18R   2298       0.09      1.008
  9068       HAL3    412   POPC   H18S   2298       0.09      1.008
  9069       HAL3    412   POPC   H18T   2298       0.09      1.008
  9070       CTL2    412   POPC    C33   2299      -0.18     12.011
  9071       HAL2    412   POPC    H3X   2299       0.09      1.008
  9072       HAL2    412   POPC    H3Y   2299       0.09      1.008
  9073       CTL2    412   POPC    C34   2300      -0.18     12.011
  9074       HAL2    412   POPC    H4X   2300       0.09      1.008
  9075       HAL2    412   POPC    H4Y   2300       0.09      1.008
  9076       CTL2    412   POPC    C35   2301      -0.18     12.011
  9077       HAL2    412   POPC    H5X   2301       0.09      1.008
  9078       HAL2    412   POPC    H5Y   2301       0.09      1.008
  9079       CTL2    412   POPC    C36   2302      -0.18     12.011
  9080       HAL2    412   POPC    H6X   2302       0.09      1.008
  9081       HAL2    412   POPC    H6Y   2302       0.09      1.008
  9082       CTL2    412   POPC    C37   2303      -0.18     12.011
  9083       HAL2    412   POPC    H7X   2303       0.09      1.008
  9084       HAL2    412   POPC    H7Y   2303       0.09      1.008
  9085       CTL2    412   POPC    C38   2304      -0.18     12.011
  9086       HAL2    412   POPC    H8X   2304       0.09      1.008
  9087       HAL2    412   POPC    H8Y   2304       0.09      1.008
  9088       CTL2    412   POPC    C39   2305      -0.18     12.011
  9089       HAL2    412   POPC    H9X   2305       0.09      1.008
  9090       HAL2    412   POPC    H9Y   2305       0.09      1.008
  9091       CTL2    412   POPC   C310   2306      -0.18     12.011
  9092       HAL2    412   POPC   H10X   2306       0.09      1.008
  9093       HAL2    412   POPC   H10Y   2306       0.09      1.008
  9094       CTL2    412   POPC   C311   2307      -0.18     12.011
  9095       HAL2    412   POPC   H11X   2307       0.09      1.008
  9096       HAL2    412   POPC   H11Y   2307       0.09      1.008
  9097       CTL2    412   POPC   C312   2308      -0.18     12.011
  9098       HAL2    412   POPC   H12X   2308       0.09      1.008
  9099       HAL2    412   POPC   H12Y   2308       0.09      1.008
  9100       CTL2    412   POPC   C313   2309      -0.18     12.011
  9101       HAL2    412   POPC   H13X   2309       0.09      1.008
  9102       HAL2    412   POPC   H13Y   2309       0.09      1.008
  9103       CTL2    412   POPC   C314   2310      -0.18     12.011
  9104       HAL2    412   POPC   H14X   2310       0.09      1.008
  9105       HAL2    412   POPC   H14Y   2310       0.09      1.008
  9106       CTL2    412   POPC   C315   2311      -0.18     12.011
  9107       HAL2    412   POPC   H15X   2311       0.09      1.008
  9108       HAL2    412   POPC   H15Y   2311       0.09      1.008
  9109       CTL3    412   POPC   C316   2312      -0.27     12.011
  9110       HAL3    412   POPC   H16X   2312       0.09      1.008
  9111       HAL3    412   POPC   H16Y   2312       0.09      1.008
  9112       HAL3    412   POPC   H16Z   2312       0.09      1.008   ; qtot 0
; residue 413 POPC rtp POPC q  0.0
  9113        NTL    413   POPC      N   2313       -0.6     14.007
  9114       CTL2    413   POPC    C12   2313       -0.1     12.011
  9115         HL    413   POPC   H12A   2313       0.25      1.008
  9116         HL    413   POPC   H12B   2313       0.25      1.008
  9117       CTL5    413   POPC    C13   2313      -0.35     12.011
  9118         HL    413   POPC   H13A   2313       0.25      1.008
  9119         HL    413   POPC   H13B   2313       0.25      1.008
  9120         HL    413   POPC   H13C   2313       0.25      1.008
  9121       CTL5    413   POPC    C14   2313      -0.35     12.011
  9122         HL    413   POPC   H14A   2313       0.25      1.008
  9123         HL    413   POPC   H14B   2313       0.25      1.008
  9124         HL    413   POPC   H14C   2313       0.25      1.008
  9125       CTL5    413   POPC    C15   2313      -0.35     12.011
  9126         HL    413   POPC   H15A   2313       0.25      1.008
  9127         HL    413   POPC   H15B   2313       0.25      1.008
  9128         HL    413   POPC   H15C   2313       0.25      1.008
  9129       CTL2    413   POPC    C11   2314      -0.08     12.011
  9130       HAL2    413   POPC   H11A   2314       0.09      1.008
  9131       HAL2    413   POPC   H11B   2314       0.09      1.008
  9132         PL    413   POPC      P   2314        1.5     30.974
  9133        O2L    413   POPC    O13   2314      -0.78    15.9994
  9134        O2L    413   POPC    O14   2314      -0.78    15.9994
  9135       OSLP    413   POPC    O12   2314      -0.57    15.9994
  9136       OSLP    413   POPC    O11   2314      -0.57    15.9994
  9137       CTL2    413   POPC     C1   2314      -0.08     12.011
  9138       HAL2    413   POPC     HA   2314       0.09      1.008
  9139       HAL2    413   POPC     HB   2314       0.09      1.008
  9140       CTL1    413   POPC     C2   2315       0.17     12.011
  9141       HAL1    413   POPC     HS   2315       0.09      1.008
  9142        OSL    413   POPC    O21   2315      -0.49    15.9994
  9143         CL    413   POPC    C21   2315        0.9     12.011
  9144        OBL    413   POPC    O22   2315      -0.63    15.9994
  9145       CTL2    413   POPC    C22   2315      -0.22     12.011
  9146       HAL2    413   POPC    H2R   2315       0.09      1.008
  9147       HAL2    413   POPC    H2S   2315       0.09      1.008
  9148       CTL2    413   POPC     C3   2316       0.08     12.011
  9149       HAL2    413   POPC     HX   2316       0.09      1.008
  9150       HAL2    413   POPC     HY   2316       0.09      1.008
  9151        OSL    413   POPC    O31   2316      -0.49    15.9994
  9152         CL    413   POPC    C31   2316        0.9     12.011
  9153        OBL    413   POPC    O32   2316      -0.63    15.9994
  9154       CTL2    413   POPC    C32   2316      -0.22     12.011
  9155       HAL2    413   POPC    H2X   2316       0.09      1.008
  9156       HAL2    413   POPC    H2Y   2316       0.09      1.008
  9157       CTL2    413   POPC    C23   2317      -0.18     12.011
  9158       HAL2    413   POPC    H3R   2317       0.09      1.008
  9159       HAL2    413   POPC    H3S   2317       0.09      1.008
  9160       CTL2    413   POPC    C24   2318      -0.18     12.011
  9161       HAL2    413   POPC    H4R   2318       0.09      1.008
  9162       HAL2    413   POPC    H4S   2318       0.09      1.008
  9163       CTL2    413   POPC    C25   2319      -0.18     12.011
  9164       HAL2    413   POPC    H5R   2319       0.09      1.008
  9165       HAL2    413   POPC    H5S   2319       0.09      1.008
  9166       CTL2    413   POPC    C26   2320      -0.18     12.011
  9167       HAL2    413   POPC    H6R   2320       0.09      1.008
  9168       HAL2    413   POPC    H6S   2320       0.09      1.008
  9169       CTL2    413   POPC    C27   2321      -0.18     12.011
  9170       HAL2    413   POPC    H7R   2321       0.09      1.008
  9171       HAL2    413   POPC    H7S   2321       0.09      1.008
  9172       CTL2    413   POPC    C28   2322      -0.18     12.011
  9173       HAL2    413   POPC    H8R   2322       0.09      1.008
  9174       HAL2    413   POPC    H8S   2322       0.09      1.008
  9175       CEL1    413   POPC    C29   2323      -0.15     12.011
  9176       HEL1    413   POPC    H91   2323       0.15      1.008
  9177       CEL1    413   POPC   C210   2324      -0.15     12.011
  9178       HEL1    413   POPC   H101   2324       0.15      1.008
  9179       CTL2    413   POPC   C211   2325      -0.18     12.011
  9180       HAL2    413   POPC   H11R   2325       0.09      1.008
  9181       HAL2    413   POPC   H11S   2325       0.09      1.008
  9182       CTL2    413   POPC   C212   2326      -0.18     12.011
  9183       HAL2    413   POPC   H12R   2326       0.09      1.008
  9184       HAL2    413   POPC   H12S   2326       0.09      1.008
  9185       CTL2    413   POPC   C213   2327      -0.18     12.011
  9186       HAL2    413   POPC   H13R   2327       0.09      1.008
  9187       HAL2    413   POPC   H13S   2327       0.09      1.008
  9188       CTL2    413   POPC   C214   2328      -0.18     12.011
  9189       HAL2    413   POPC   H14R   2328       0.09      1.008
  9190       HAL2    413   POPC   H14S   2328       0.09      1.008
  9191       CTL2    413   POPC   C215   2329      -0.18     12.011
  9192       HAL2    413   POPC   H15R   2329       0.09      1.008
  9193       HAL2    413   POPC   H15S   2329       0.09      1.008
  9194       CTL2    413   POPC   C216   2330      -0.18     12.011
  9195       HAL2    413   POPC   H16R   2330       0.09      1.008
  9196       HAL2    413   POPC   H16S   2330       0.09      1.008
  9197       CTL2    413   POPC   C217   2331      -0.18     12.011
  9198       HAL2    413   POPC   H17R   2331       0.09      1.008
  9199       HAL2    413   POPC   H17S   2331       0.09      1.008
  9200       CTL3    413   POPC   C218   2332      -0.27     12.011
  9201       HAL3    413   POPC   H18R   2332       0.09      1.008
  9202       HAL3    413   POPC   H18S   2332       0.09      1.008
  9203       HAL3    413   POPC   H18T   2332       0.09      1.008
  9204       CTL2    413   POPC    C33   2333      -0.18     12.011
  9205       HAL2    413   POPC    H3X   2333       0.09      1.008
  9206       HAL2    413   POPC    H3Y   2333       0.09      1.008
  9207       CTL2    413   POPC    C34   2334      -0.18     12.011
  9208       HAL2    413   POPC    H4X   2334       0.09      1.008
  9209       HAL2    413   POPC    H4Y   2334       0.09      1.008
  9210       CTL2    413   POPC    C35   2335      -0.18     12.011
  9211       HAL2    413   POPC    H5X   2335       0.09      1.008
  9212       HAL2    413   POPC    H5Y   2335       0.09      1.008
  9213       CTL2    413   POPC    C36   2336      -0.18     12.011
  9214       HAL2    413   POPC    H6X   2336       0.09      1.008
  9215       HAL2    413   POPC    H6Y   2336       0.09      1.008
  9216       CTL2    413   POPC    C37   2337      -0.18     12.011
  9217       HAL2    413   POPC    H7X   2337       0.09      1.008
  9218       HAL2    413   POPC    H7Y   2337       0.09      1.008
  9219       CTL2    413   POPC    C38   2338      -0.18     12.011
  9220       HAL2    413   POPC    H8X   2338       0.09      1.008
  9221       HAL2    413   POPC    H8Y   2338       0.09      1.008
  9222       CTL2    413   POPC    C39   2339      -0.18     12.011
  9223       HAL2    413   POPC    H9X   2339       0.09      1.008
  9224       HAL2    413   POPC    H9Y   2339       0.09      1.008
  9225       CTL2    413   POPC   C310   2340      -0.18     12.011
  9226       HAL2    413   POPC   H10X   2340       0.09      1.008
  9227       HAL2    413   POPC   H10Y   2340       0.09      1.008
  9228       CTL2    413   POPC   C311   2341      -0.18     12.011
  9229       HAL2    413   POPC   H11X   2341       0.09      1.008
  9230       HAL2    413   POPC   H11Y   2341       0.09      1.008
  9231       CTL2    413   POPC   C312   2342      -0.18     12.011
  9232       HAL2    413   POPC   H12X   2342       0.09      1.008
  9233       HAL2    413   POPC   H12Y   2342       0.09      1.008
  9234       CTL2    413   POPC   C313   2343      -0.18     12.011
  9235       HAL2    413   POPC   H13X   2343       0.09      1.008
  9236       HAL2    413   POPC   H13Y   2343       0.09      1.008
  9237       CTL2    413   POPC   C314   2344      -0.18     12.011
  9238       HAL2    413   POPC   H14X   2344       0.09      1.008
  9239       HAL2    413   POPC   H14Y   2344       0.09      1.008
  9240       CTL2    413   POPC   C315   2345      -0.18     12.011
  9241       HAL2    413   POPC   H15X   2345       0.09      1.008
  9242       HAL2    413   POPC   H15Y   2345       0.09      1.008
  9243       CTL3    413   POPC   C316   2346      -0.27     12.011
  9244       HAL3    413   POPC   H16X   2346       0.09      1.008
  9245       HAL3    413   POPC   H16Y   2346       0.09      1.008
  9246       HAL3    413   POPC   H16Z   2346       0.09      1.008   ; qtot 0
; residue 414 POPC rtp POPC q  0.0
  9247        NTL    414   POPC      N   2347       -0.6     14.007
  9248       CTL2    414   POPC    C12   2347       -0.1     12.011
  9249         HL    414   POPC   H12A   2347       0.25      1.008
  9250         HL    414   POPC   H12B   2347       0.25      1.008
  9251       CTL5    414   POPC    C13   2347      -0.35     12.011
  9252         HL    414   POPC   H13A   2347       0.25      1.008
  9253         HL    414   POPC   H13B   2347       0.25      1.008
  9254         HL    414   POPC   H13C   2347       0.25      1.008
  9255       CTL5    414   POPC    C14   2347      -0.35     12.011
  9256         HL    414   POPC   H14A   2347       0.25      1.008
  9257         HL    414   POPC   H14B   2347       0.25      1.008
  9258         HL    414   POPC   H14C   2347       0.25      1.008
  9259       CTL5    414   POPC    C15   2347      -0.35     12.011
  9260         HL    414   POPC   H15A   2347       0.25      1.008
  9261         HL    414   POPC   H15B   2347       0.25      1.008
  9262         HL    414   POPC   H15C   2347       0.25      1.008
  9263       CTL2    414   POPC    C11   2348      -0.08     12.011
  9264       HAL2    414   POPC   H11A   2348       0.09      1.008
  9265       HAL2    414   POPC   H11B   2348       0.09      1.008
  9266         PL    414   POPC      P   2348        1.5     30.974
  9267        O2L    414   POPC    O13   2348      -0.78    15.9994
  9268        O2L    414   POPC    O14   2348      -0.78    15.9994
  9269       OSLP    414   POPC    O12   2348      -0.57    15.9994
  9270       OSLP    414   POPC    O11   2348      -0.57    15.9994
  9271       CTL2    414   POPC     C1   2348      -0.08     12.011
  9272       HAL2    414   POPC     HA   2348       0.09      1.008
  9273       HAL2    414   POPC     HB   2348       0.09      1.008
  9274       CTL1    414   POPC     C2   2349       0.17     12.011
  9275       HAL1    414   POPC     HS   2349       0.09      1.008
  9276        OSL    414   POPC    O21   2349      -0.49    15.9994
  9277         CL    414   POPC    C21   2349        0.9     12.011
  9278        OBL    414   POPC    O22   2349      -0.63    15.9994
  9279       CTL2    414   POPC    C22   2349      -0.22     12.011
  9280       HAL2    414   POPC    H2R   2349       0.09      1.008
  9281       HAL2    414   POPC    H2S   2349       0.09      1.008
  9282       CTL2    414   POPC     C3   2350       0.08     12.011
  9283       HAL2    414   POPC     HX   2350       0.09      1.008
  9284       HAL2    414   POPC     HY   2350       0.09      1.008
  9285        OSL    414   POPC    O31   2350      -0.49    15.9994
  9286         CL    414   POPC    C31   2350        0.9     12.011
  9287        OBL    414   POPC    O32   2350      -0.63    15.9994
  9288       CTL2    414   POPC    C32   2350      -0.22     12.011
  9289       HAL2    414   POPC    H2X   2350       0.09      1.008
  9290       HAL2    414   POPC    H2Y   2350       0.09      1.008
  9291       CTL2    414   POPC    C23   2351      -0.18     12.011
  9292       HAL2    414   POPC    H3R   2351       0.09      1.008
  9293       HAL2    414   POPC    H3S   2351       0.09      1.008
  9294       CTL2    414   POPC    C24   2352      -0.18     12.011
  9295       HAL2    414   POPC    H4R   2352       0.09      1.008
  9296       HAL2    414   POPC    H4S   2352       0.09      1.008
  9297       CTL2    414   POPC    C25   2353      -0.18     12.011
  9298       HAL2    414   POPC    H5R   2353       0.09      1.008
  9299       HAL2    414   POPC    H5S   2353       0.09      1.008
  9300       CTL2    414   POPC    C26   2354      -0.18     12.011
  9301       HAL2    414   POPC    H6R   2354       0.09      1.008
  9302       HAL2    414   POPC    H6S   2354       0.09      1.008
  9303       CTL2    414   POPC    C27   2355      -0.18     12.011
  9304       HAL2    414   POPC    H7R   2355       0.09      1.008
  9305       HAL2    414   POPC    H7S   2355       0.09      1.008
  9306       CTL2    414   POPC    C28   2356      -0.18     12.011
  9307       HAL2    414   POPC    H8R   2356       0.09      1.008
  9308       HAL2    414   POPC    H8S   2356       0.09      1.008
  9309       CEL1    414   POPC    C29   2357      -0.15     12.011
  9310       HEL1    414   POPC    H91   2357       0.15      1.008
  9311       CEL1    414   POPC   C210   2358      -0.15     12.011
  9312       HEL1    414   POPC   H101   2358       0.15      1.008
  9313       CTL2    414   POPC   C211   2359      -0.18     12.011
  9314       HAL2    414   POPC   H11R   2359       0.09      1.008
  9315       HAL2    414   POPC   H11S   2359       0.09      1.008
  9316       CTL2    414   POPC   C212   2360      -0.18     12.011
  9317       HAL2    414   POPC   H12R   2360       0.09      1.008
  9318       HAL2    414   POPC   H12S   2360       0.09      1.008
  9319       CTL2    414   POPC   C213   2361      -0.18     12.011
  9320       HAL2    414   POPC   H13R   2361       0.09      1.008
  9321       HAL2    414   POPC   H13S   2361       0.09      1.008
  9322       CTL2    414   POPC   C214   2362      -0.18     12.011
  9323       HAL2    414   POPC   H14R   2362       0.09      1.008
  9324       HAL2    414   POPC   H14S   2362       0.09      1.008
  9325       CTL2    414   POPC   C215   2363      -0.18     12.011
  9326       HAL2    414   POPC   H15R   2363       0.09      1.008
  9327       HAL2    414   POPC   H15S   2363       0.09      1.008
  9328       CTL2    414   POPC   C216   2364      -0.18     12.011
  9329       HAL2    414   POPC   H16R   2364       0.09      1.008
  9330       HAL2    414   POPC   H16S   2364       0.09      1.008
  9331       CTL2    414   POPC   C217   2365      -0.18     12.011
  9332       HAL2    414   POPC   H17R   2365       0.09      1.008
  9333       HAL2    414   POPC   H17S   2365       0.09      1.008
  9334       CTL3    414   POPC   C218   2366      -0.27     12.011
  9335       HAL3    414   POPC   H18R   2366       0.09      1.008
  9336       HAL3    414   POPC   H18S   2366       0.09      1.008
  9337       HAL3    414   POPC   H18T   2366       0.09      1.008
  9338       CTL2    414   POPC    C33   2367      -0.18     12.011
  9339       HAL2    414   POPC    H3X   2367       0.09      1.008
  9340       HAL2    414   POPC    H3Y   2367       0.09      1.008
  9341       CTL2    414   POPC    C34   2368      -0.18     12.011
  9342       HAL2    414   POPC    H4X   2368       0.09      1.008
  9343       HAL2    414   POPC    H4Y   2368       0.09      1.008
  9344       CTL2    414   POPC    C35   2369      -0.18     12.011
  9345       HAL2    414   POPC    H5X   2369       0.09      1.008
  9346       HAL2    414   POPC    H5Y   2369       0.09      1.008
  9347       CTL2    414   POPC    C36   2370      -0.18     12.011
  9348       HAL2    414   POPC    H6X   2370       0.09      1.008
  9349       HAL2    414   POPC    H6Y   2370       0.09      1.008
  9350       CTL2    414   POPC    C37   2371      -0.18     12.011
  9351       HAL2    414   POPC    H7X   2371       0.09      1.008
  9352       HAL2    414   POPC    H7Y   2371       0.09      1.008
  9353       CTL2    414   POPC    C38   2372      -0.18     12.011
  9354       HAL2    414   POPC    H8X   2372       0.09      1.008
  9355       HAL2    414   POPC    H8Y   2372       0.09      1.008
  9356       CTL2    414   POPC    C39   2373      -0.18     12.011
  9357       HAL2    414   POPC    H9X   2373       0.09      1.008
  9358       HAL2    414   POPC    H9Y   2373       0.09      1.008
  9359       CTL2    414   POPC   C310   2374      -0.18     12.011
  9360       HAL2    414   POPC   H10X   2374       0.09      1.008
  9361       HAL2    414   POPC   H10Y   2374       0.09      1.008
  9362       CTL2    414   POPC   C311   2375      -0.18     12.011
  9363       HAL2    414   POPC   H11X   2375       0.09      1.008
  9364       HAL2    414   POPC   H11Y   2375       0.09      1.008
  9365       CTL2    414   POPC   C312   2376      -0.18     12.011
  9366       HAL2    414   POPC   H12X   2376       0.09      1.008
  9367       HAL2    414   POPC   H12Y   2376       0.09      1.008
  9368       CTL2    414   POPC   C313   2377      -0.18     12.011
  9369       HAL2    414   POPC   H13X   2377       0.09      1.008
  9370       HAL2    414   POPC   H13Y   2377       0.09      1.008
  9371       CTL2    414   POPC   C314   2378      -0.18     12.011
  9372       HAL2    414   POPC   H14X   2378       0.09      1.008
  9373       HAL2    414   POPC   H14Y   2378       0.09      1.008
  9374       CTL2    414   POPC   C315   2379      -0.18     12.011
  9375       HAL2    414   POPC   H15X   2379       0.09      1.008
  9376       HAL2    414   POPC   H15Y   2379       0.09      1.008
  9377       CTL3    414   POPC   C316   2380      -0.27     12.011
  9378       HAL3    414   POPC   H16X   2380       0.09      1.008
  9379       HAL3    414   POPC   H16Y   2380       0.09      1.008
  9380       HAL3    414   POPC   H16Z   2380       0.09      1.008   ; qtot 0
; residue 415 POPC rtp POPC q  0.0
  9381        NTL    415   POPC      N   2381       -0.6     14.007
  9382       CTL2    415   POPC    C12   2381       -0.1     12.011
  9383         HL    415   POPC   H12A   2381       0.25      1.008
  9384         HL    415   POPC   H12B   2381       0.25      1.008
  9385       CTL5    415   POPC    C13   2381      -0.35     12.011
  9386         HL    415   POPC   H13A   2381       0.25      1.008
  9387         HL    415   POPC   H13B   2381       0.25      1.008
  9388         HL    415   POPC   H13C   2381       0.25      1.008
  9389       CTL5    415   POPC    C14   2381      -0.35     12.011
  9390         HL    415   POPC   H14A   2381       0.25      1.008
  9391         HL    415   POPC   H14B   2381       0.25      1.008
  9392         HL    415   POPC   H14C   2381       0.25      1.008
  9393       CTL5    415   POPC    C15   2381      -0.35     12.011
  9394         HL    415   POPC   H15A   2381       0.25      1.008
  9395         HL    415   POPC   H15B   2381       0.25      1.008
  9396         HL    415   POPC   H15C   2381       0.25      1.008
  9397       CTL2    415   POPC    C11   2382      -0.08     12.011
  9398       HAL2    415   POPC   H11A   2382       0.09      1.008
  9399       HAL2    415   POPC   H11B   2382       0.09      1.008
  9400         PL    415   POPC      P   2382        1.5     30.974
  9401        O2L    415   POPC    O13   2382      -0.78    15.9994
  9402        O2L    415   POPC    O14   2382      -0.78    15.9994
  9403       OSLP    415   POPC    O12   2382      -0.57    15.9994
  9404       OSLP    415   POPC    O11   2382      -0.57    15.9994
  9405       CTL2    415   POPC     C1   2382      -0.08     12.011
  9406       HAL2    415   POPC     HA   2382       0.09      1.008
  9407       HAL2    415   POPC     HB   2382       0.09      1.008
  9408       CTL1    415   POPC     C2   2383       0.17     12.011
  9409       HAL1    415   POPC     HS   2383       0.09      1.008
  9410        OSL    415   POPC    O21   2383      -0.49    15.9994
  9411         CL    415   POPC    C21   2383        0.9     12.011
  9412        OBL    415   POPC    O22   2383      -0.63    15.9994
  9413       CTL2    415   POPC    C22   2383      -0.22     12.011
  9414       HAL2    415   POPC    H2R   2383       0.09      1.008
  9415       HAL2    415   POPC    H2S   2383       0.09      1.008
  9416       CTL2    415   POPC     C3   2384       0.08     12.011
  9417       HAL2    415   POPC     HX   2384       0.09      1.008
  9418       HAL2    415   POPC     HY   2384       0.09      1.008
  9419        OSL    415   POPC    O31   2384      -0.49    15.9994
  9420         CL    415   POPC    C31   2384        0.9     12.011
  9421        OBL    415   POPC    O32   2384      -0.63    15.9994
  9422       CTL2    415   POPC    C32   2384      -0.22     12.011
  9423       HAL2    415   POPC    H2X   2384       0.09      1.008
  9424       HAL2    415   POPC    H2Y   2384       0.09      1.008
  9425       CTL2    415   POPC    C23   2385      -0.18     12.011
  9426       HAL2    415   POPC    H3R   2385       0.09      1.008
  9427       HAL2    415   POPC    H3S   2385       0.09      1.008
  9428       CTL2    415   POPC    C24   2386      -0.18     12.011
  9429       HAL2    415   POPC    H4R   2386       0.09      1.008
  9430       HAL2    415   POPC    H4S   2386       0.09      1.008
  9431       CTL2    415   POPC    C25   2387      -0.18     12.011
  9432       HAL2    415   POPC    H5R   2387       0.09      1.008
  9433       HAL2    415   POPC    H5S   2387       0.09      1.008
  9434       CTL2    415   POPC    C26   2388      -0.18     12.011
  9435       HAL2    415   POPC    H6R   2388       0.09      1.008
  9436       HAL2    415   POPC    H6S   2388       0.09      1.008
  9437       CTL2    415   POPC    C27   2389      -0.18     12.011
  9438       HAL2    415   POPC    H7R   2389       0.09      1.008
  9439       HAL2    415   POPC    H7S   2389       0.09      1.008
  9440       CTL2    415   POPC    C28   2390      -0.18     12.011
  9441       HAL2    415   POPC    H8R   2390       0.09      1.008
  9442       HAL2    415   POPC    H8S   2390       0.09      1.008
  9443       CEL1    415   POPC    C29   2391      -0.15     12.011
  9444       HEL1    415   POPC    H91   2391       0.15      1.008
  9445       CEL1    415   POPC   C210   2392      -0.15     12.011
  9446       HEL1    415   POPC   H101   2392       0.15      1.008
  9447       CTL2    415   POPC   C211   2393      -0.18     12.011
  9448       HAL2    415   POPC   H11R   2393       0.09      1.008
  9449       HAL2    415   POPC   H11S   2393       0.09      1.008
  9450       CTL2    415   POPC   C212   2394      -0.18     12.011
  9451       HAL2    415   POPC   H12R   2394       0.09      1.008
  9452       HAL2    415   POPC   H12S   2394       0.09      1.008
  9453       CTL2    415   POPC   C213   2395      -0.18     12.011
  9454       HAL2    415   POPC   H13R   2395       0.09      1.008
  9455       HAL2    415   POPC   H13S   2395       0.09      1.008
  9456       CTL2    415   POPC   C214   2396      -0.18     12.011
  9457       HAL2    415   POPC   H14R   2396       0.09      1.008
  9458       HAL2    415   POPC   H14S   2396       0.09      1.008
  9459       CTL2    415   POPC   C215   2397      -0.18     12.011
  9460       HAL2    415   POPC   H15R   2397       0.09      1.008
  9461       HAL2    415   POPC   H15S   2397       0.09      1.008
  9462       CTL2    415   POPC   C216   2398      -0.18     12.011
  9463       HAL2    415   POPC   H16R   2398       0.09      1.008
  9464       HAL2    415   POPC   H16S   2398       0.09      1.008
  9465       CTL2    415   POPC   C217   2399      -0.18     12.011
  9466       HAL2    415   POPC   H17R   2399       0.09      1.008
  9467       HAL2    415   POPC   H17S   2399       0.09      1.008
  9468       CTL3    415   POPC   C218   2400      -0.27     12.011
  9469       HAL3    415   POPC   H18R   2400       0.09      1.008
  9470       HAL3    415   POPC   H18S   2400       0.09      1.008
  9471       HAL3    415   POPC   H18T   2400       0.09      1.008
  9472       CTL2    415   POPC    C33   2401      -0.18     12.011
  9473       HAL2    415   POPC    H3X   2401       0.09      1.008
  9474       HAL2    415   POPC    H3Y   2401       0.09      1.008
  9475       CTL2    415   POPC    C34   2402      -0.18     12.011
  9476       HAL2    415   POPC    H4X   2402       0.09      1.008
  9477       HAL2    415   POPC    H4Y   2402       0.09      1.008
  9478       CTL2    415   POPC    C35   2403      -0.18     12.011
  9479       HAL2    415   POPC    H5X   2403       0.09      1.008
  9480       HAL2    415   POPC    H5Y   2403       0.09      1.008
  9481       CTL2    415   POPC    C36   2404      -0.18     12.011
  9482       HAL2    415   POPC    H6X   2404       0.09      1.008
  9483       HAL2    415   POPC    H6Y   2404       0.09      1.008
  9484       CTL2    415   POPC    C37   2405      -0.18     12.011
  9485       HAL2    415   POPC    H7X   2405       0.09      1.008
  9486       HAL2    415   POPC    H7Y   2405       0.09      1.008
  9487       CTL2    415   POPC    C38   2406      -0.18     12.011
  9488       HAL2    415   POPC    H8X   2406       0.09      1.008
  9489       HAL2    415   POPC    H8Y   2406       0.09      1.008
  9490       CTL2    415   POPC    C39   2407      -0.18     12.011
  9491       HAL2    415   POPC    H9X   2407       0.09      1.008
  9492       HAL2    415   POPC    H9Y   2407       0.09      1.008
  9493       CTL2    415   POPC   C310   2408      -0.18     12.011
  9494       HAL2    415   POPC   H10X   2408       0.09      1.008
  9495       HAL2    415   POPC   H10Y   2408       0.09      1.008
  9496       CTL2    415   POPC   C311   2409      -0.18     12.011
  9497       HAL2    415   POPC   H11X   2409       0.09      1.008
  9498       HAL2    415   POPC   H11Y   2409       0.09      1.008
  9499       CTL2    415   POPC   C312   2410      -0.18     12.011
  9500       HAL2    415   POPC   H12X   2410       0.09      1.008
  9501       HAL2    415   POPC   H12Y   2410       0.09      1.008
  9502       CTL2    415   POPC   C313   2411      -0.18     12.011
  9503       HAL2    415   POPC   H13X   2411       0.09      1.008
  9504       HAL2    415   POPC   H13Y   2411       0.09      1.008
  9505       CTL2    415   POPC   C314   2412      -0.18     12.011
  9506       HAL2    415   POPC   H14X   2412       0.09      1.008
  9507       HAL2    415   POPC   H14Y   2412       0.09      1.008
  9508       CTL2    415   POPC   C315   2413      -0.18     12.011
  9509       HAL2    415   POPC   H15X   2413       0.09      1.008
  9510       HAL2    415   POPC   H15Y   2413       0.09      1.008
  9511       CTL3    415   POPC   C316   2414      -0.27     12.011
  9512       HAL3    415   POPC   H16X   2414       0.09      1.008
  9513       HAL3    415   POPC   H16Y   2414       0.09      1.008
  9514       HAL3    415   POPC   H16Z   2414       0.09      1.008   ; qtot 0
; residue 416 POPC rtp POPC q  0.0
  9515        NTL    416   POPC      N   2415       -0.6     14.007
  9516       CTL2    416   POPC    C12   2415       -0.1     12.011
  9517         HL    416   POPC   H12A   2415       0.25      1.008
  9518         HL    416   POPC   H12B   2415       0.25      1.008
  9519       CTL5    416   POPC    C13   2415      -0.35     12.011
  9520         HL    416   POPC   H13A   2415       0.25      1.008
  9521         HL    416   POPC   H13B   2415       0.25      1.008
  9522         HL    416   POPC   H13C   2415       0.25      1.008
  9523       CTL5    416   POPC    C14   2415      -0.35     12.011
  9524         HL    416   POPC   H14A   2415       0.25      1.008
  9525         HL    416   POPC   H14B   2415       0.25      1.008
  9526         HL    416   POPC   H14C   2415       0.25      1.008
  9527       CTL5    416   POPC    C15   2415      -0.35     12.011
  9528         HL    416   POPC   H15A   2415       0.25      1.008
  9529         HL    416   POPC   H15B   2415       0.25      1.008
  9530         HL    416   POPC   H15C   2415       0.25      1.008
  9531       CTL2    416   POPC    C11   2416      -0.08     12.011
  9532       HAL2    416   POPC   H11A   2416       0.09      1.008
  9533       HAL2    416   POPC   H11B   2416       0.09      1.008
  9534         PL    416   POPC      P   2416        1.5     30.974
  9535        O2L    416   POPC    O13   2416      -0.78    15.9994
  9536        O2L    416   POPC    O14   2416      -0.78    15.9994
  9537       OSLP    416   POPC    O12   2416      -0.57    15.9994
  9538       OSLP    416   POPC    O11   2416      -0.57    15.9994
  9539       CTL2    416   POPC     C1   2416      -0.08     12.011
  9540       HAL2    416   POPC     HA   2416       0.09      1.008
  9541       HAL2    416   POPC     HB   2416       0.09      1.008
  9542       CTL1    416   POPC     C2   2417       0.17     12.011
  9543       HAL1    416   POPC     HS   2417       0.09      1.008
  9544        OSL    416   POPC    O21   2417      -0.49    15.9994
  9545         CL    416   POPC    C21   2417        0.9     12.011
  9546        OBL    416   POPC    O22   2417      -0.63    15.9994
  9547       CTL2    416   POPC    C22   2417      -0.22     12.011
  9548       HAL2    416   POPC    H2R   2417       0.09      1.008
  9549       HAL2    416   POPC    H2S   2417       0.09      1.008
  9550       CTL2    416   POPC     C3   2418       0.08     12.011
  9551       HAL2    416   POPC     HX   2418       0.09      1.008
  9552       HAL2    416   POPC     HY   2418       0.09      1.008
  9553        OSL    416   POPC    O31   2418      -0.49    15.9994
  9554         CL    416   POPC    C31   2418        0.9     12.011
  9555        OBL    416   POPC    O32   2418      -0.63    15.9994
  9556       CTL2    416   POPC    C32   2418      -0.22     12.011
  9557       HAL2    416   POPC    H2X   2418       0.09      1.008
  9558       HAL2    416   POPC    H2Y   2418       0.09      1.008
  9559       CTL2    416   POPC    C23   2419      -0.18     12.011
  9560       HAL2    416   POPC    H3R   2419       0.09      1.008
  9561       HAL2    416   POPC    H3S   2419       0.09      1.008
  9562       CTL2    416   POPC    C24   2420      -0.18     12.011
  9563       HAL2    416   POPC    H4R   2420       0.09      1.008
  9564       HAL2    416   POPC    H4S   2420       0.09      1.008
  9565       CTL2    416   POPC    C25   2421      -0.18     12.011
  9566       HAL2    416   POPC    H5R   2421       0.09      1.008
  9567       HAL2    416   POPC    H5S   2421       0.09      1.008
  9568       CTL2    416   POPC    C26   2422      -0.18     12.011
  9569       HAL2    416   POPC    H6R   2422       0.09      1.008
  9570       HAL2    416   POPC    H6S   2422       0.09      1.008
  9571       CTL2    416   POPC    C27   2423      -0.18     12.011
  9572       HAL2    416   POPC    H7R   2423       0.09      1.008
  9573       HAL2    416   POPC    H7S   2423       0.09      1.008
  9574       CTL2    416   POPC    C28   2424      -0.18     12.011
  9575       HAL2    416   POPC    H8R   2424       0.09      1.008
  9576       HAL2    416   POPC    H8S   2424       0.09      1.008
  9577       CEL1    416   POPC    C29   2425      -0.15     12.011
  9578       HEL1    416   POPC    H91   2425       0.15      1.008
  9579       CEL1    416   POPC   C210   2426      -0.15     12.011
  9580       HEL1    416   POPC   H101   2426       0.15      1.008
  9581       CTL2    416   POPC   C211   2427      -0.18     12.011
  9582       HAL2    416   POPC   H11R   2427       0.09      1.008
  9583       HAL2    416   POPC   H11S   2427       0.09      1.008
  9584       CTL2    416   POPC   C212   2428      -0.18     12.011
  9585       HAL2    416   POPC   H12R   2428       0.09      1.008
  9586       HAL2    416   POPC   H12S   2428       0.09      1.008
  9587       CTL2    416   POPC   C213   2429      -0.18     12.011
  9588       HAL2    416   POPC   H13R   2429       0.09      1.008
  9589       HAL2    416   POPC   H13S   2429       0.09      1.008
  9590       CTL2    416   POPC   C214   2430      -0.18     12.011
  9591       HAL2    416   POPC   H14R   2430       0.09      1.008
  9592       HAL2    416   POPC   H14S   2430       0.09      1.008
  9593       CTL2    416   POPC   C215   2431      -0.18     12.011
  9594       HAL2    416   POPC   H15R   2431       0.09      1.008
  9595       HAL2    416   POPC   H15S   2431       0.09      1.008
  9596       CTL2    416   POPC   C216   2432      -0.18     12.011
  9597       HAL2    416   POPC   H16R   2432       0.09      1.008
  9598       HAL2    416   POPC   H16S   2432       0.09      1.008
  9599       CTL2    416   POPC   C217   2433      -0.18     12.011
  9600       HAL2    416   POPC   H17R   2433       0.09      1.008
  9601       HAL2    416   POPC   H17S   2433       0.09      1.008
  9602       CTL3    416   POPC   C218   2434      -0.27     12.011
  9603       HAL3    416   POPC   H18R   2434       0.09      1.008
  9604       HAL3    416   POPC   H18S   2434       0.09      1.008
  9605       HAL3    416   POPC   H18T   2434       0.09      1.008
  9606       CTL2    416   POPC    C33   2435      -0.18     12.011
  9607       HAL2    416   POPC    H3X   2435       0.09      1.008
  9608       HAL2    416   POPC    H3Y   2435       0.09      1.008
  9609       CTL2    416   POPC    C34   2436      -0.18     12.011
  9610       HAL2    416   POPC    H4X   2436       0.09      1.008
  9611       HAL2    416   POPC    H4Y   2436       0.09      1.008
  9612       CTL2    416   POPC    C35   2437      -0.18     12.011
  9613       HAL2    416   POPC    H5X   2437       0.09      1.008
  9614       HAL2    416   POPC    H5Y   2437       0.09      1.008
  9615       CTL2    416   POPC    C36   2438      -0.18     12.011
  9616       HAL2    416   POPC    H6X   2438       0.09      1.008
  9617       HAL2    416   POPC    H6Y   2438       0.09      1.008
  9618       CTL2    416   POPC    C37   2439      -0.18     12.011
  9619       HAL2    416   POPC    H7X   2439       0.09      1.008
  9620       HAL2    416   POPC    H7Y   2439       0.09      1.008
  9621       CTL2    416   POPC    C38   2440      -0.18     12.011
  9622       HAL2    416   POPC    H8X   2440       0.09      1.008
  9623       HAL2    416   POPC    H8Y   2440       0.09      1.008
  9624       CTL2    416   POPC    C39   2441      -0.18     12.011
  9625       HAL2    416   POPC    H9X   2441       0.09      1.008
  9626       HAL2    416   POPC    H9Y   2441       0.09      1.008
  9627       CTL2    416   POPC   C310   2442      -0.18     12.011
  9628       HAL2    416   POPC   H10X   2442       0.09      1.008
  9629       HAL2    416   POPC   H10Y   2442       0.09      1.008
  9630       CTL2    416   POPC   C311   2443      -0.18     12.011
  9631       HAL2    416   POPC   H11X   2443       0.09      1.008
  9632       HAL2    416   POPC   H11Y   2443       0.09      1.008
  9633       CTL2    416   POPC   C312   2444      -0.18     12.011
  9634       HAL2    416   POPC   H12X   2444       0.09      1.008
  9635       HAL2    416   POPC   H12Y   2444       0.09      1.008
  9636       CTL2    416   POPC   C313   2445      -0.18     12.011
  9637       HAL2    416   POPC   H13X   2445       0.09      1.008
  9638       HAL2    416   POPC   H13Y   2445       0.09      1.008
  9639       CTL2    416   POPC   C314   2446      -0.18     12.011
  9640       HAL2    416   POPC   H14X   2446       0.09      1.008
  9641       HAL2    416   POPC   H14Y   2446       0.09      1.008
  9642       CTL2    416   POPC   C315   2447      -0.18     12.011
  9643       HAL2    416   POPC   H15X   2447       0.09      1.008
  9644       HAL2    416   POPC   H15Y   2447       0.09      1.008
  9645       CTL3    416   POPC   C316   2448      -0.27     12.011
  9646       HAL3    416   POPC   H16X   2448       0.09      1.008
  9647       HAL3    416   POPC   H16Y   2448       0.09      1.008
  9648       HAL3    416   POPC   H16Z   2448       0.09      1.008   ; qtot 0
; residue 417 POPC rtp POPC q  0.0
  9649        NTL    417   POPC      N   2449       -0.6     14.007
  9650       CTL2    417   POPC    C12   2449       -0.1     12.011
  9651         HL    417   POPC   H12A   2449       0.25      1.008
  9652         HL    417   POPC   H12B   2449       0.25      1.008
  9653       CTL5    417   POPC    C13   2449      -0.35     12.011
  9654         HL    417   POPC   H13A   2449       0.25      1.008
  9655         HL    417   POPC   H13B   2449       0.25      1.008
  9656         HL    417   POPC   H13C   2449       0.25      1.008
  9657       CTL5    417   POPC    C14   2449      -0.35     12.011
  9658         HL    417   POPC   H14A   2449       0.25      1.008
  9659         HL    417   POPC   H14B   2449       0.25      1.008
  9660         HL    417   POPC   H14C   2449       0.25      1.008
  9661       CTL5    417   POPC    C15   2449      -0.35     12.011
  9662         HL    417   POPC   H15A   2449       0.25      1.008
  9663         HL    417   POPC   H15B   2449       0.25      1.008
  9664         HL    417   POPC   H15C   2449       0.25      1.008
  9665       CTL2    417   POPC    C11   2450      -0.08     12.011
  9666       HAL2    417   POPC   H11A   2450       0.09      1.008
  9667       HAL2    417   POPC   H11B   2450       0.09      1.008
  9668         PL    417   POPC      P   2450        1.5     30.974
  9669        O2L    417   POPC    O13   2450      -0.78    15.9994
  9670        O2L    417   POPC    O14   2450      -0.78    15.9994
  9671       OSLP    417   POPC    O12   2450      -0.57    15.9994
  9672       OSLP    417   POPC    O11   2450      -0.57    15.9994
  9673       CTL2    417   POPC     C1   2450      -0.08     12.011
  9674       HAL2    417   POPC     HA   2450       0.09      1.008
  9675       HAL2    417   POPC     HB   2450       0.09      1.008
  9676       CTL1    417   POPC     C2   2451       0.17     12.011
  9677       HAL1    417   POPC     HS   2451       0.09      1.008
  9678        OSL    417   POPC    O21   2451      -0.49    15.9994
  9679         CL    417   POPC    C21   2451        0.9     12.011
  9680        OBL    417   POPC    O22   2451      -0.63    15.9994
  9681       CTL2    417   POPC    C22   2451      -0.22     12.011
  9682       HAL2    417   POPC    H2R   2451       0.09      1.008
  9683       HAL2    417   POPC    H2S   2451       0.09      1.008
  9684       CTL2    417   POPC     C3   2452       0.08     12.011
  9685       HAL2    417   POPC     HX   2452       0.09      1.008
  9686       HAL2    417   POPC     HY   2452       0.09      1.008
  9687        OSL    417   POPC    O31   2452      -0.49    15.9994
  9688         CL    417   POPC    C31   2452        0.9     12.011
  9689        OBL    417   POPC    O32   2452      -0.63    15.9994
  9690       CTL2    417   POPC    C32   2452      -0.22     12.011
  9691       HAL2    417   POPC    H2X   2452       0.09      1.008
  9692       HAL2    417   POPC    H2Y   2452       0.09      1.008
  9693       CTL2    417   POPC    C23   2453      -0.18     12.011
  9694       HAL2    417   POPC    H3R   2453       0.09      1.008
  9695       HAL2    417   POPC    H3S   2453       0.09      1.008
  9696       CTL2    417   POPC    C24   2454      -0.18     12.011
  9697       HAL2    417   POPC    H4R   2454       0.09      1.008
  9698       HAL2    417   POPC    H4S   2454       0.09      1.008
  9699       CTL2    417   POPC    C25   2455      -0.18     12.011
  9700       HAL2    417   POPC    H5R   2455       0.09      1.008
  9701       HAL2    417   POPC    H5S   2455       0.09      1.008
  9702       CTL2    417   POPC    C26   2456      -0.18     12.011
  9703       HAL2    417   POPC    H6R   2456       0.09      1.008
  9704       HAL2    417   POPC    H6S   2456       0.09      1.008
  9705       CTL2    417   POPC    C27   2457      -0.18     12.011
  9706       HAL2    417   POPC    H7R   2457       0.09      1.008
  9707       HAL2    417   POPC    H7S   2457       0.09      1.008
  9708       CTL2    417   POPC    C28   2458      -0.18     12.011
  9709       HAL2    417   POPC    H8R   2458       0.09      1.008
  9710       HAL2    417   POPC    H8S   2458       0.09      1.008
  9711       CEL1    417   POPC    C29   2459      -0.15     12.011
  9712       HEL1    417   POPC    H91   2459       0.15      1.008
  9713       CEL1    417   POPC   C210   2460      -0.15     12.011
  9714       HEL1    417   POPC   H101   2460       0.15      1.008
  9715       CTL2    417   POPC   C211   2461      -0.18     12.011
  9716       HAL2    417   POPC   H11R   2461       0.09      1.008
  9717       HAL2    417   POPC   H11S   2461       0.09      1.008
  9718       CTL2    417   POPC   C212   2462      -0.18     12.011
  9719       HAL2    417   POPC   H12R   2462       0.09      1.008
  9720       HAL2    417   POPC   H12S   2462       0.09      1.008
  9721       CTL2    417   POPC   C213   2463      -0.18     12.011
  9722       HAL2    417   POPC   H13R   2463       0.09      1.008
  9723       HAL2    417   POPC   H13S   2463       0.09      1.008
  9724       CTL2    417   POPC   C214   2464      -0.18     12.011
  9725       HAL2    417   POPC   H14R   2464       0.09      1.008
  9726       HAL2    417   POPC   H14S   2464       0.09      1.008
  9727       CTL2    417   POPC   C215   2465      -0.18     12.011
  9728       HAL2    417   POPC   H15R   2465       0.09      1.008
  9729       HAL2    417   POPC   H15S   2465       0.09      1.008
  9730       CTL2    417   POPC   C216   2466      -0.18     12.011
  9731       HAL2    417   POPC   H16R   2466       0.09      1.008
  9732       HAL2    417   POPC   H16S   2466       0.09      1.008
  9733       CTL2    417   POPC   C217   2467      -0.18     12.011
  9734       HAL2    417   POPC   H17R   2467       0.09      1.008
  9735       HAL2    417   POPC   H17S   2467       0.09      1.008
  9736       CTL3    417   POPC   C218   2468      -0.27     12.011
  9737       HAL3    417   POPC   H18R   2468       0.09      1.008
  9738       HAL3    417   POPC   H18S   2468       0.09      1.008
  9739       HAL3    417   POPC   H18T   2468       0.09      1.008
  9740       CTL2    417   POPC    C33   2469      -0.18     12.011
  9741       HAL2    417   POPC    H3X   2469       0.09      1.008
  9742       HAL2    417   POPC    H3Y   2469       0.09      1.008
  9743       CTL2    417   POPC    C34   2470      -0.18     12.011
  9744       HAL2    417   POPC    H4X   2470       0.09      1.008
  9745       HAL2    417   POPC    H4Y   2470       0.09      1.008
  9746       CTL2    417   POPC    C35   2471      -0.18     12.011
  9747       HAL2    417   POPC    H5X   2471       0.09      1.008
  9748       HAL2    417   POPC    H5Y   2471       0.09      1.008
  9749       CTL2    417   POPC    C36   2472      -0.18     12.011
  9750       HAL2    417   POPC    H6X   2472       0.09      1.008
  9751       HAL2    417   POPC    H6Y   2472       0.09      1.008
  9752       CTL2    417   POPC    C37   2473      -0.18     12.011
  9753       HAL2    417   POPC    H7X   2473       0.09      1.008
  9754       HAL2    417   POPC    H7Y   2473       0.09      1.008
  9755       CTL2    417   POPC    C38   2474      -0.18     12.011
  9756       HAL2    417   POPC    H8X   2474       0.09      1.008
  9757       HAL2    417   POPC    H8Y   2474       0.09      1.008
  9758       CTL2    417   POPC    C39   2475      -0.18     12.011
  9759       HAL2    417   POPC    H9X   2475       0.09      1.008
  9760       HAL2    417   POPC    H9Y   2475       0.09      1.008
  9761       CTL2    417   POPC   C310   2476      -0.18     12.011
  9762       HAL2    417   POPC   H10X   2476       0.09      1.008
  9763       HAL2    417   POPC   H10Y   2476       0.09      1.008
  9764       CTL2    417   POPC   C311   2477      -0.18     12.011
  9765       HAL2    417   POPC   H11X   2477       0.09      1.008
  9766       HAL2    417   POPC   H11Y   2477       0.09      1.008
  9767       CTL2    417   POPC   C312   2478      -0.18     12.011
  9768       HAL2    417   POPC   H12X   2478       0.09      1.008
  9769       HAL2    417   POPC   H12Y   2478       0.09      1.008
  9770       CTL2    417   POPC   C313   2479      -0.18     12.011
  9771       HAL2    417   POPC   H13X   2479       0.09      1.008
  9772       HAL2    417   POPC   H13Y   2479       0.09      1.008
  9773       CTL2    417   POPC   C314   2480      -0.18     12.011
  9774       HAL2    417   POPC   H14X   2480       0.09      1.008
  9775       HAL2    417   POPC   H14Y   2480       0.09      1.008
  9776       CTL2    417   POPC   C315   2481      -0.18     12.011
  9777       HAL2    417   POPC   H15X   2481       0.09      1.008
  9778       HAL2    417   POPC   H15Y   2481       0.09      1.008
  9779       CTL3    417   POPC   C316   2482      -0.27     12.011
  9780       HAL3    417   POPC   H16X   2482       0.09      1.008
  9781       HAL3    417   POPC   H16Y   2482       0.09      1.008
  9782       HAL3    417   POPC   H16Z   2482       0.09      1.008   ; qtot 0
; residue 418 POPC rtp POPC q  0.0
  9783        NTL    418   POPC      N   2483       -0.6     14.007
  9784       CTL2    418   POPC    C12   2483       -0.1     12.011
  9785         HL    418   POPC   H12A   2483       0.25      1.008
  9786         HL    418   POPC   H12B   2483       0.25      1.008
  9787       CTL5    418   POPC    C13   2483      -0.35     12.011
  9788         HL    418   POPC   H13A   2483       0.25      1.008
  9789         HL    418   POPC   H13B   2483       0.25      1.008
  9790         HL    418   POPC   H13C   2483       0.25      1.008
  9791       CTL5    418   POPC    C14   2483      -0.35     12.011
  9792         HL    418   POPC   H14A   2483       0.25      1.008
  9793         HL    418   POPC   H14B   2483       0.25      1.008
  9794         HL    418   POPC   H14C   2483       0.25      1.008
  9795       CTL5    418   POPC    C15   2483      -0.35     12.011
  9796         HL    418   POPC   H15A   2483       0.25      1.008
  9797         HL    418   POPC   H15B   2483       0.25      1.008
  9798         HL    418   POPC   H15C   2483       0.25      1.008
  9799       CTL2    418   POPC    C11   2484      -0.08     12.011
  9800       HAL2    418   POPC   H11A   2484       0.09      1.008
  9801       HAL2    418   POPC   H11B   2484       0.09      1.008
  9802         PL    418   POPC      P   2484        1.5     30.974
  9803        O2L    418   POPC    O13   2484      -0.78    15.9994
  9804        O2L    418   POPC    O14   2484      -0.78    15.9994
  9805       OSLP    418   POPC    O12   2484      -0.57    15.9994
  9806       OSLP    418   POPC    O11   2484      -0.57    15.9994
  9807       CTL2    418   POPC     C1   2484      -0.08     12.011
  9808       HAL2    418   POPC     HA   2484       0.09      1.008
  9809       HAL2    418   POPC     HB   2484       0.09      1.008
  9810       CTL1    418   POPC     C2   2485       0.17     12.011
  9811       HAL1    418   POPC     HS   2485       0.09      1.008
  9812        OSL    418   POPC    O21   2485      -0.49    15.9994
  9813         CL    418   POPC    C21   2485        0.9     12.011
  9814        OBL    418   POPC    O22   2485      -0.63    15.9994
  9815       CTL2    418   POPC    C22   2485      -0.22     12.011
  9816       HAL2    418   POPC    H2R   2485       0.09      1.008
  9817       HAL2    418   POPC    H2S   2485       0.09      1.008
  9818       CTL2    418   POPC     C3   2486       0.08     12.011
  9819       HAL2    418   POPC     HX   2486       0.09      1.008
  9820       HAL2    418   POPC     HY   2486       0.09      1.008
  9821        OSL    418   POPC    O31   2486      -0.49    15.9994
  9822         CL    418   POPC    C31   2486        0.9     12.011
  9823        OBL    418   POPC    O32   2486      -0.63    15.9994
  9824       CTL2    418   POPC    C32   2486      -0.22     12.011
  9825       HAL2    418   POPC    H2X   2486       0.09      1.008
  9826       HAL2    418   POPC    H2Y   2486       0.09      1.008
  9827       CTL2    418   POPC    C23   2487      -0.18     12.011
  9828       HAL2    418   POPC    H3R   2487       0.09      1.008
  9829       HAL2    418   POPC    H3S   2487       0.09      1.008
  9830       CTL2    418   POPC    C24   2488      -0.18     12.011
  9831       HAL2    418   POPC    H4R   2488       0.09      1.008
  9832       HAL2    418   POPC    H4S   2488       0.09      1.008
  9833       CTL2    418   POPC    C25   2489      -0.18     12.011
  9834       HAL2    418   POPC    H5R   2489       0.09      1.008
  9835       HAL2    418   POPC    H5S   2489       0.09      1.008
  9836       CTL2    418   POPC    C26   2490      -0.18     12.011
  9837       HAL2    418   POPC    H6R   2490       0.09      1.008
  9838       HAL2    418   POPC    H6S   2490       0.09      1.008
  9839       CTL2    418   POPC    C27   2491      -0.18     12.011
  9840       HAL2    418   POPC    H7R   2491       0.09      1.008
  9841       HAL2    418   POPC    H7S   2491       0.09      1.008
  9842       CTL2    418   POPC    C28   2492      -0.18     12.011
  9843       HAL2    418   POPC    H8R   2492       0.09      1.008
  9844       HAL2    418   POPC    H8S   2492       0.09      1.008
  9845       CEL1    418   POPC    C29   2493      -0.15     12.011
  9846       HEL1    418   POPC    H91   2493       0.15      1.008
  9847       CEL1    418   POPC   C210   2494      -0.15     12.011
  9848       HEL1    418   POPC   H101   2494       0.15      1.008
  9849       CTL2    418   POPC   C211   2495      -0.18     12.011
  9850       HAL2    418   POPC   H11R   2495       0.09      1.008
  9851       HAL2    418   POPC   H11S   2495       0.09      1.008
  9852       CTL2    418   POPC   C212   2496      -0.18     12.011
  9853       HAL2    418   POPC   H12R   2496       0.09      1.008
  9854       HAL2    418   POPC   H12S   2496       0.09      1.008
  9855       CTL2    418   POPC   C213   2497      -0.18     12.011
  9856       HAL2    418   POPC   H13R   2497       0.09      1.008
  9857       HAL2    418   POPC   H13S   2497       0.09      1.008
  9858       CTL2    418   POPC   C214   2498      -0.18     12.011
  9859       HAL2    418   POPC   H14R   2498       0.09      1.008
  9860       HAL2    418   POPC   H14S   2498       0.09      1.008
  9861       CTL2    418   POPC   C215   2499      -0.18     12.011
  9862       HAL2    418   POPC   H15R   2499       0.09      1.008
  9863       HAL2    418   POPC   H15S   2499       0.09      1.008
  9864       CTL2    418   POPC   C216   2500      -0.18     12.011
  9865       HAL2    418   POPC   H16R   2500       0.09      1.008
  9866       HAL2    418   POPC   H16S   2500       0.09      1.008
  9867       CTL2    418   POPC   C217   2501      -0.18     12.011
  9868       HAL2    418   POPC   H17R   2501       0.09      1.008
  9869       HAL2    418   POPC   H17S   2501       0.09      1.008
  9870       CTL3    418   POPC   C218   2502      -0.27     12.011
  9871       HAL3    418   POPC   H18R   2502       0.09      1.008
  9872       HAL3    418   POPC   H18S   2502       0.09      1.008
  9873       HAL3    418   POPC   H18T   2502       0.09      1.008
  9874       CTL2    418   POPC    C33   2503      -0.18     12.011
  9875       HAL2    418   POPC    H3X   2503       0.09      1.008
  9876       HAL2    418   POPC    H3Y   2503       0.09      1.008
  9877       CTL2    418   POPC    C34   2504      -0.18     12.011
  9878       HAL2    418   POPC    H4X   2504       0.09      1.008
  9879       HAL2    418   POPC    H4Y   2504       0.09      1.008
  9880       CTL2    418   POPC    C35   2505      -0.18     12.011
  9881       HAL2    418   POPC    H5X   2505       0.09      1.008
  9882       HAL2    418   POPC    H5Y   2505       0.09      1.008
  9883       CTL2    418   POPC    C36   2506      -0.18     12.011
  9884       HAL2    418   POPC    H6X   2506       0.09      1.008
  9885       HAL2    418   POPC    H6Y   2506       0.09      1.008
  9886       CTL2    418   POPC    C37   2507      -0.18     12.011
  9887       HAL2    418   POPC    H7X   2507       0.09      1.008
  9888       HAL2    418   POPC    H7Y   2507       0.09      1.008
  9889       CTL2    418   POPC    C38   2508      -0.18     12.011
  9890       HAL2    418   POPC    H8X   2508       0.09      1.008
  9891       HAL2    418   POPC    H8Y   2508       0.09      1.008
  9892       CTL2    418   POPC    C39   2509      -0.18     12.011
  9893       HAL2    418   POPC    H9X   2509       0.09      1.008
  9894       HAL2    418   POPC    H9Y   2509       0.09      1.008
  9895       CTL2    418   POPC   C310   2510      -0.18     12.011
  9896       HAL2    418   POPC   H10X   2510       0.09      1.008
  9897       HAL2    418   POPC   H10Y   2510       0.09      1.008
  9898       CTL2    418   POPC   C311   2511      -0.18     12.011
  9899       HAL2    418   POPC   H11X   2511       0.09      1.008
  9900       HAL2    418   POPC   H11Y   2511       0.09      1.008
  9901       CTL2    418   POPC   C312   2512      -0.18     12.011
  9902       HAL2    418   POPC   H12X   2512       0.09      1.008
  9903       HAL2    418   POPC   H12Y   2512       0.09      1.008
  9904       CTL2    418   POPC   C313   2513      -0.18     12.011
  9905       HAL2    418   POPC   H13X   2513       0.09      1.008
  9906       HAL2    418   POPC   H13Y   2513       0.09      1.008
  9907       CTL2    418   POPC   C314   2514      -0.18     12.011
  9908       HAL2    418   POPC   H14X   2514       0.09      1.008
  9909       HAL2    418   POPC   H14Y   2514       0.09      1.008
  9910       CTL2    418   POPC   C315   2515      -0.18     12.011
  9911       HAL2    418   POPC   H15X   2515       0.09      1.008
  9912       HAL2    418   POPC   H15Y   2515       0.09      1.008
  9913       CTL3    418   POPC   C316   2516      -0.27     12.011
  9914       HAL3    418   POPC   H16X   2516       0.09      1.008
  9915       HAL3    418   POPC   H16Y   2516       0.09      1.008
  9916       HAL3    418   POPC   H16Z   2516       0.09      1.008   ; qtot 0
; residue 419 POPC rtp POPC q  0.0
  9917        NTL    419   POPC      N   2517       -0.6     14.007
  9918       CTL2    419   POPC    C12   2517       -0.1     12.011
  9919         HL    419   POPC   H12A   2517       0.25      1.008
  9920         HL    419   POPC   H12B   2517       0.25      1.008
  9921       CTL5    419   POPC    C13   2517      -0.35     12.011
  9922         HL    419   POPC   H13A   2517       0.25      1.008
  9923         HL    419   POPC   H13B   2517       0.25      1.008
  9924         HL    419   POPC   H13C   2517       0.25      1.008
  9925       CTL5    419   POPC    C14   2517      -0.35     12.011
  9926         HL    419   POPC   H14A   2517       0.25      1.008
  9927         HL    419   POPC   H14B   2517       0.25      1.008
  9928         HL    419   POPC   H14C   2517       0.25      1.008
  9929       CTL5    419   POPC    C15   2517      -0.35     12.011
  9930         HL    419   POPC   H15A   2517       0.25      1.008
  9931         HL    419   POPC   H15B   2517       0.25      1.008
  9932         HL    419   POPC   H15C   2517       0.25      1.008
  9933       CTL2    419   POPC    C11   2518      -0.08     12.011
  9934       HAL2    419   POPC   H11A   2518       0.09      1.008
  9935       HAL2    419   POPC   H11B   2518       0.09      1.008
  9936         PL    419   POPC      P   2518        1.5     30.974
  9937        O2L    419   POPC    O13   2518      -0.78    15.9994
  9938        O2L    419   POPC    O14   2518      -0.78    15.9994
  9939       OSLP    419   POPC    O12   2518      -0.57    15.9994
  9940       OSLP    419   POPC    O11   2518      -0.57    15.9994
  9941       CTL2    419   POPC     C1   2518      -0.08     12.011
  9942       HAL2    419   POPC     HA   2518       0.09      1.008
  9943       HAL2    419   POPC     HB   2518       0.09      1.008
  9944       CTL1    419   POPC     C2   2519       0.17     12.011
  9945       HAL1    419   POPC     HS   2519       0.09      1.008
  9946        OSL    419   POPC    O21   2519      -0.49    15.9994
  9947         CL    419   POPC    C21   2519        0.9     12.011
  9948        OBL    419   POPC    O22   2519      -0.63    15.9994
  9949       CTL2    419   POPC    C22   2519      -0.22     12.011
  9950       HAL2    419   POPC    H2R   2519       0.09      1.008
  9951       HAL2    419   POPC    H2S   2519       0.09      1.008
  9952       CTL2    419   POPC     C3   2520       0.08     12.011
  9953       HAL2    419   POPC     HX   2520       0.09      1.008
  9954       HAL2    419   POPC     HY   2520       0.09      1.008
  9955        OSL    419   POPC    O31   2520      -0.49    15.9994
  9956         CL    419   POPC    C31   2520        0.9     12.011
  9957        OBL    419   POPC    O32   2520      -0.63    15.9994
  9958       CTL2    419   POPC    C32   2520      -0.22     12.011
  9959       HAL2    419   POPC    H2X   2520       0.09      1.008
  9960       HAL2    419   POPC    H2Y   2520       0.09      1.008
  9961       CTL2    419   POPC    C23   2521      -0.18     12.011
  9962       HAL2    419   POPC    H3R   2521       0.09      1.008
  9963       HAL2    419   POPC    H3S   2521       0.09      1.008
  9964       CTL2    419   POPC    C24   2522      -0.18     12.011
  9965       HAL2    419   POPC    H4R   2522       0.09      1.008
  9966       HAL2    419   POPC    H4S   2522       0.09      1.008
  9967       CTL2    419   POPC    C25   2523      -0.18     12.011
  9968       HAL2    419   POPC    H5R   2523       0.09      1.008
  9969       HAL2    419   POPC    H5S   2523       0.09      1.008
  9970       CTL2    419   POPC    C26   2524      -0.18     12.011
  9971       HAL2    419   POPC    H6R   2524       0.09      1.008
  9972       HAL2    419   POPC    H6S   2524       0.09      1.008
  9973       CTL2    419   POPC    C27   2525      -0.18     12.011
  9974       HAL2    419   POPC    H7R   2525       0.09      1.008
  9975       HAL2    419   POPC    H7S   2525       0.09      1.008
  9976       CTL2    419   POPC    C28   2526      -0.18     12.011
  9977       HAL2    419   POPC    H8R   2526       0.09      1.008
  9978       HAL2    419   POPC    H8S   2526       0.09      1.008
  9979       CEL1    419   POPC    C29   2527      -0.15     12.011
  9980       HEL1    419   POPC    H91   2527       0.15      1.008
  9981       CEL1    419   POPC   C210   2528      -0.15     12.011
  9982       HEL1    419   POPC   H101   2528       0.15      1.008
  9983       CTL2    419   POPC   C211   2529      -0.18     12.011
  9984       HAL2    419   POPC   H11R   2529       0.09      1.008
  9985       HAL2    419   POPC   H11S   2529       0.09      1.008
  9986       CTL2    419   POPC   C212   2530      -0.18     12.011
  9987       HAL2    419   POPC   H12R   2530       0.09      1.008
  9988       HAL2    419   POPC   H12S   2530       0.09      1.008
  9989       CTL2    419   POPC   C213   2531      -0.18     12.011
  9990       HAL2    419   POPC   H13R   2531       0.09      1.008
  9991       HAL2    419   POPC   H13S   2531       0.09      1.008
  9992       CTL2    419   POPC   C214   2532      -0.18     12.011
  9993       HAL2    419   POPC   H14R   2532       0.09      1.008
  9994       HAL2    419   POPC   H14S   2532       0.09      1.008
  9995       CTL2    419   POPC   C215   2533      -0.18     12.011
  9996       HAL2    419   POPC   H15R   2533       0.09      1.008
  9997       HAL2    419   POPC   H15S   2533       0.09      1.008
  9998       CTL2    419   POPC   C216   2534      -0.18     12.011
  9999       HAL2    419   POPC   H16R   2534       0.09      1.008
 10000       HAL2    419   POPC   H16S   2534       0.09      1.008
 10001       CTL2    419   POPC   C217   2535      -0.18     12.011
 10002       HAL2    419   POPC   H17R   2535       0.09      1.008
 10003       HAL2    419   POPC   H17S   2535       0.09      1.008
 10004       CTL3    419   POPC   C218   2536      -0.27     12.011
 10005       HAL3    419   POPC   H18R   2536       0.09      1.008
 10006       HAL3    419   POPC   H18S   2536       0.09      1.008
 10007       HAL3    419   POPC   H18T   2536       0.09      1.008
 10008       CTL2    419   POPC    C33   2537      -0.18     12.011
 10009       HAL2    419   POPC    H3X   2537       0.09      1.008
 10010       HAL2    419   POPC    H3Y   2537       0.09      1.008
 10011       CTL2    419   POPC    C34   2538      -0.18     12.011
 10012       HAL2    419   POPC    H4X   2538       0.09      1.008
 10013       HAL2    419   POPC    H4Y   2538       0.09      1.008
 10014       CTL2    419   POPC    C35   2539      -0.18     12.011
 10015       HAL2    419   POPC    H5X   2539       0.09      1.008
 10016       HAL2    419   POPC    H5Y   2539       0.09      1.008
 10017       CTL2    419   POPC    C36   2540      -0.18     12.011
 10018       HAL2    419   POPC    H6X   2540       0.09      1.008
 10019       HAL2    419   POPC    H6Y   2540       0.09      1.008
 10020       CTL2    419   POPC    C37   2541      -0.18     12.011
 10021       HAL2    419   POPC    H7X   2541       0.09      1.008
 10022       HAL2    419   POPC    H7Y   2541       0.09      1.008
 10023       CTL2    419   POPC    C38   2542      -0.18     12.011
 10024       HAL2    419   POPC    H8X   2542       0.09      1.008
 10025       HAL2    419   POPC    H8Y   2542       0.09      1.008
 10026       CTL2    419   POPC    C39   2543      -0.18     12.011
 10027       HAL2    419   POPC    H9X   2543       0.09      1.008
 10028       HAL2    419   POPC    H9Y   2543       0.09      1.008
 10029       CTL2    419   POPC   C310   2544      -0.18     12.011
 10030       HAL2    419   POPC   H10X   2544       0.09      1.008
 10031       HAL2    419   POPC   H10Y   2544       0.09      1.008
 10032       CTL2    419   POPC   C311   2545      -0.18     12.011
 10033       HAL2    419   POPC   H11X   2545       0.09      1.008
 10034       HAL2    419   POPC   H11Y   2545       0.09      1.008
 10035       CTL2    419   POPC   C312   2546      -0.18     12.011
 10036       HAL2    419   POPC   H12X   2546       0.09      1.008
 10037       HAL2    419   POPC   H12Y   2546       0.09      1.008
 10038       CTL2    419   POPC   C313   2547      -0.18     12.011
 10039       HAL2    419   POPC   H13X   2547       0.09      1.008
 10040       HAL2    419   POPC   H13Y   2547       0.09      1.008
 10041       CTL2    419   POPC   C314   2548      -0.18     12.011
 10042       HAL2    419   POPC   H14X   2548       0.09      1.008
 10043       HAL2    419   POPC   H14Y   2548       0.09      1.008
 10044       CTL2    419   POPC   C315   2549      -0.18     12.011
 10045       HAL2    419   POPC   H15X   2549       0.09      1.008
 10046       HAL2    419   POPC   H15Y   2549       0.09      1.008
 10047       CTL3    419   POPC   C316   2550      -0.27     12.011
 10048       HAL3    419   POPC   H16X   2550       0.09      1.008
 10049       HAL3    419   POPC   H16Y   2550       0.09      1.008
 10050       HAL3    419   POPC   H16Z   2550       0.09      1.008   ; qtot 0
; residue 420 POPC rtp POPC q  0.0
 10051        NTL    420   POPC      N   2551       -0.6     14.007
 10052       CTL2    420   POPC    C12   2551       -0.1     12.011
 10053         HL    420   POPC   H12A   2551       0.25      1.008
 10054         HL    420   POPC   H12B   2551       0.25      1.008
 10055       CTL5    420   POPC    C13   2551      -0.35     12.011
 10056         HL    420   POPC   H13A   2551       0.25      1.008
 10057         HL    420   POPC   H13B   2551       0.25      1.008
 10058         HL    420   POPC   H13C   2551       0.25      1.008
 10059       CTL5    420   POPC    C14   2551      -0.35     12.011
 10060         HL    420   POPC   H14A   2551       0.25      1.008
 10061         HL    420   POPC   H14B   2551       0.25      1.008
 10062         HL    420   POPC   H14C   2551       0.25      1.008
 10063       CTL5    420   POPC    C15   2551      -0.35     12.011
 10064         HL    420   POPC   H15A   2551       0.25      1.008
 10065         HL    420   POPC   H15B   2551       0.25      1.008
 10066         HL    420   POPC   H15C   2551       0.25      1.008
 10067       CTL2    420   POPC    C11   2552      -0.08     12.011
 10068       HAL2    420   POPC   H11A   2552       0.09      1.008
 10069       HAL2    420   POPC   H11B   2552       0.09      1.008
 10070         PL    420   POPC      P   2552        1.5     30.974
 10071        O2L    420   POPC    O13   2552      -0.78    15.9994
 10072        O2L    420   POPC    O14   2552      -0.78    15.9994
 10073       OSLP    420   POPC    O12   2552      -0.57    15.9994
 10074       OSLP    420   POPC    O11   2552      -0.57    15.9994
 10075       CTL2    420   POPC     C1   2552      -0.08     12.011
 10076       HAL2    420   POPC     HA   2552       0.09      1.008
 10077       HAL2    420   POPC     HB   2552       0.09      1.008
 10078       CTL1    420   POPC     C2   2553       0.17     12.011
 10079       HAL1    420   POPC     HS   2553       0.09      1.008
 10080        OSL    420   POPC    O21   2553      -0.49    15.9994
 10081         CL    420   POPC    C21   2553        0.9     12.011
 10082        OBL    420   POPC    O22   2553      -0.63    15.9994
 10083       CTL2    420   POPC    C22   2553      -0.22     12.011
 10084       HAL2    420   POPC    H2R   2553       0.09      1.008
 10085       HAL2    420   POPC    H2S   2553       0.09      1.008
 10086       CTL2    420   POPC     C3   2554       0.08     12.011
 10087       HAL2    420   POPC     HX   2554       0.09      1.008
 10088       HAL2    420   POPC     HY   2554       0.09      1.008
 10089        OSL    420   POPC    O31   2554      -0.49    15.9994
 10090         CL    420   POPC    C31   2554        0.9     12.011
 10091        OBL    420   POPC    O32   2554      -0.63    15.9994
 10092       CTL2    420   POPC    C32   2554      -0.22     12.011
 10093       HAL2    420   POPC    H2X   2554       0.09      1.008
 10094       HAL2    420   POPC    H2Y   2554       0.09      1.008
 10095       CTL2    420   POPC    C23   2555      -0.18     12.011
 10096       HAL2    420   POPC    H3R   2555       0.09      1.008
 10097       HAL2    420   POPC    H3S   2555       0.09      1.008
 10098       CTL2    420   POPC    C24   2556      -0.18     12.011
 10099       HAL2    420   POPC    H4R   2556       0.09      1.008
 10100       HAL2    420   POPC    H4S   2556       0.09      1.008
 10101       CTL2    420   POPC    C25   2557      -0.18     12.011
 10102       HAL2    420   POPC    H5R   2557       0.09      1.008
 10103       HAL2    420   POPC    H5S   2557       0.09      1.008
 10104       CTL2    420   POPC    C26   2558      -0.18     12.011
 10105       HAL2    420   POPC    H6R   2558       0.09      1.008
 10106       HAL2    420   POPC    H6S   2558       0.09      1.008
 10107       CTL2    420   POPC    C27   2559      -0.18     12.011
 10108       HAL2    420   POPC    H7R   2559       0.09      1.008
 10109       HAL2    420   POPC    H7S   2559       0.09      1.008
 10110       CTL2    420   POPC    C28   2560      -0.18     12.011
 10111       HAL2    420   POPC    H8R   2560       0.09      1.008
 10112       HAL2    420   POPC    H8S   2560       0.09      1.008
 10113       CEL1    420   POPC    C29   2561      -0.15     12.011
 10114       HEL1    420   POPC    H91   2561       0.15      1.008
 10115       CEL1    420   POPC   C210   2562      -0.15     12.011
 10116       HEL1    420   POPC   H101   2562       0.15      1.008
 10117       CTL2    420   POPC   C211   2563      -0.18     12.011
 10118       HAL2    420   POPC   H11R   2563       0.09      1.008
 10119       HAL2    420   POPC   H11S   2563       0.09      1.008
 10120       CTL2    420   POPC   C212   2564      -0.18     12.011
 10121       HAL2    420   POPC   H12R   2564       0.09      1.008
 10122       HAL2    420   POPC   H12S   2564       0.09      1.008
 10123       CTL2    420   POPC   C213   2565      -0.18     12.011
 10124       HAL2    420   POPC   H13R   2565       0.09      1.008
 10125       HAL2    420   POPC   H13S   2565       0.09      1.008
 10126       CTL2    420   POPC   C214   2566      -0.18     12.011
 10127       HAL2    420   POPC   H14R   2566       0.09      1.008
 10128       HAL2    420   POPC   H14S   2566       0.09      1.008
 10129       CTL2    420   POPC   C215   2567      -0.18     12.011
 10130       HAL2    420   POPC   H15R   2567       0.09      1.008
 10131       HAL2    420   POPC   H15S   2567       0.09      1.008
 10132       CTL2    420   POPC   C216   2568      -0.18     12.011
 10133       HAL2    420   POPC   H16R   2568       0.09      1.008
 10134       HAL2    420   POPC   H16S   2568       0.09      1.008
 10135       CTL2    420   POPC   C217   2569      -0.18     12.011
 10136       HAL2    420   POPC   H17R   2569       0.09      1.008
 10137       HAL2    420   POPC   H17S   2569       0.09      1.008
 10138       CTL3    420   POPC   C218   2570      -0.27     12.011
 10139       HAL3    420   POPC   H18R   2570       0.09      1.008
 10140       HAL3    420   POPC   H18S   2570       0.09      1.008
 10141       HAL3    420   POPC   H18T   2570       0.09      1.008
 10142       CTL2    420   POPC    C33   2571      -0.18     12.011
 10143       HAL2    420   POPC    H3X   2571       0.09      1.008
 10144       HAL2    420   POPC    H3Y   2571       0.09      1.008
 10145       CTL2    420   POPC    C34   2572      -0.18     12.011
 10146       HAL2    420   POPC    H4X   2572       0.09      1.008
 10147       HAL2    420   POPC    H4Y   2572       0.09      1.008
 10148       CTL2    420   POPC    C35   2573      -0.18     12.011
 10149       HAL2    420   POPC    H5X   2573       0.09      1.008
 10150       HAL2    420   POPC    H5Y   2573       0.09      1.008
 10151       CTL2    420   POPC    C36   2574      -0.18     12.011
 10152       HAL2    420   POPC    H6X   2574       0.09      1.008
 10153       HAL2    420   POPC    H6Y   2574       0.09      1.008
 10154       CTL2    420   POPC    C37   2575      -0.18     12.011
 10155       HAL2    420   POPC    H7X   2575       0.09      1.008
 10156       HAL2    420   POPC    H7Y   2575       0.09      1.008
 10157       CTL2    420   POPC    C38   2576      -0.18     12.011
 10158       HAL2    420   POPC    H8X   2576       0.09      1.008
 10159       HAL2    420   POPC    H8Y   2576       0.09      1.008
 10160       CTL2    420   POPC    C39   2577      -0.18     12.011
 10161       HAL2    420   POPC    H9X   2577       0.09      1.008
 10162       HAL2    420   POPC    H9Y   2577       0.09      1.008
 10163       CTL2    420   POPC   C310   2578      -0.18     12.011
 10164       HAL2    420   POPC   H10X   2578       0.09      1.008
 10165       HAL2    420   POPC   H10Y   2578       0.09      1.008
 10166       CTL2    420   POPC   C311   2579      -0.18     12.011
 10167       HAL2    420   POPC   H11X   2579       0.09      1.008
 10168       HAL2    420   POPC   H11Y   2579       0.09      1.008
 10169       CTL2    420   POPC   C312   2580      -0.18     12.011
 10170       HAL2    420   POPC   H12X   2580       0.09      1.008
 10171       HAL2    420   POPC   H12Y   2580       0.09      1.008
 10172       CTL2    420   POPC   C313   2581      -0.18     12.011
 10173       HAL2    420   POPC   H13X   2581       0.09      1.008
 10174       HAL2    420   POPC   H13Y   2581       0.09      1.008
 10175       CTL2    420   POPC   C314   2582      -0.18     12.011
 10176       HAL2    420   POPC   H14X   2582       0.09      1.008
 10177       HAL2    420   POPC   H14Y   2582       0.09      1.008
 10178       CTL2    420   POPC   C315   2583      -0.18     12.011
 10179       HAL2    420   POPC   H15X   2583       0.09      1.008
 10180       HAL2    420   POPC   H15Y   2583       0.09      1.008
 10181       CTL3    420   POPC   C316   2584      -0.27     12.011
 10182       HAL3    420   POPC   H16X   2584       0.09      1.008
 10183       HAL3    420   POPC   H16Y   2584       0.09      1.008
 10184       HAL3    420   POPC   H16Z   2584       0.09      1.008   ; qtot 0
; residue 421 POPC rtp POPC q  0.0
 10185        NTL    421   POPC      N   2585       -0.6     14.007
 10186       CTL2    421   POPC    C12   2585       -0.1     12.011
 10187         HL    421   POPC   H12A   2585       0.25      1.008
 10188         HL    421   POPC   H12B   2585       0.25      1.008
 10189       CTL5    421   POPC    C13   2585      -0.35     12.011
 10190         HL    421   POPC   H13A   2585       0.25      1.008
 10191         HL    421   POPC   H13B   2585       0.25      1.008
 10192         HL    421   POPC   H13C   2585       0.25      1.008
 10193       CTL5    421   POPC    C14   2585      -0.35     12.011
 10194         HL    421   POPC   H14A   2585       0.25      1.008
 10195         HL    421   POPC   H14B   2585       0.25      1.008
 10196         HL    421   POPC   H14C   2585       0.25      1.008
 10197       CTL5    421   POPC    C15   2585      -0.35     12.011
 10198         HL    421   POPC   H15A   2585       0.25      1.008
 10199         HL    421   POPC   H15B   2585       0.25      1.008
 10200         HL    421   POPC   H15C   2585       0.25      1.008
 10201       CTL2    421   POPC    C11   2586      -0.08     12.011
 10202       HAL2    421   POPC   H11A   2586       0.09      1.008
 10203       HAL2    421   POPC   H11B   2586       0.09      1.008
 10204         PL    421   POPC      P   2586        1.5     30.974
 10205        O2L    421   POPC    O13   2586      -0.78    15.9994
 10206        O2L    421   POPC    O14   2586      -0.78    15.9994
 10207       OSLP    421   POPC    O12   2586      -0.57    15.9994
 10208       OSLP    421   POPC    O11   2586      -0.57    15.9994
 10209       CTL2    421   POPC     C1   2586      -0.08     12.011
 10210       HAL2    421   POPC     HA   2586       0.09      1.008
 10211       HAL2    421   POPC     HB   2586       0.09      1.008
 10212       CTL1    421   POPC     C2   2587       0.17     12.011
 10213       HAL1    421   POPC     HS   2587       0.09      1.008
 10214        OSL    421   POPC    O21   2587      -0.49    15.9994
 10215         CL    421   POPC    C21   2587        0.9     12.011
 10216        OBL    421   POPC    O22   2587      -0.63    15.9994
 10217       CTL2    421   POPC    C22   2587      -0.22     12.011
 10218       HAL2    421   POPC    H2R   2587       0.09      1.008
 10219       HAL2    421   POPC    H2S   2587       0.09      1.008
 10220       CTL2    421   POPC     C3   2588       0.08     12.011
 10221       HAL2    421   POPC     HX   2588       0.09      1.008
 10222       HAL2    421   POPC     HY   2588       0.09      1.008
 10223        OSL    421   POPC    O31   2588      -0.49    15.9994
 10224         CL    421   POPC    C31   2588        0.9     12.011
 10225        OBL    421   POPC    O32   2588      -0.63    15.9994
 10226       CTL2    421   POPC    C32   2588      -0.22     12.011
 10227       HAL2    421   POPC    H2X   2588       0.09      1.008
 10228       HAL2    421   POPC    H2Y   2588       0.09      1.008
 10229       CTL2    421   POPC    C23   2589      -0.18     12.011
 10230       HAL2    421   POPC    H3R   2589       0.09      1.008
 10231       HAL2    421   POPC    H3S   2589       0.09      1.008
 10232       CTL2    421   POPC    C24   2590      -0.18     12.011
 10233       HAL2    421   POPC    H4R   2590       0.09      1.008
 10234       HAL2    421   POPC    H4S   2590       0.09      1.008
 10235       CTL2    421   POPC    C25   2591      -0.18     12.011
 10236       HAL2    421   POPC    H5R   2591       0.09      1.008
 10237       HAL2    421   POPC    H5S   2591       0.09      1.008
 10238       CTL2    421   POPC    C26   2592      -0.18     12.011
 10239       HAL2    421   POPC    H6R   2592       0.09      1.008
 10240       HAL2    421   POPC    H6S   2592       0.09      1.008
 10241       CTL2    421   POPC    C27   2593      -0.18     12.011
 10242       HAL2    421   POPC    H7R   2593       0.09      1.008
 10243       HAL2    421   POPC    H7S   2593       0.09      1.008
 10244       CTL2    421   POPC    C28   2594      -0.18     12.011
 10245       HAL2    421   POPC    H8R   2594       0.09      1.008
 10246       HAL2    421   POPC    H8S   2594       0.09      1.008
 10247       CEL1    421   POPC    C29   2595      -0.15     12.011
 10248       HEL1    421   POPC    H91   2595       0.15      1.008
 10249       CEL1    421   POPC   C210   2596      -0.15     12.011
 10250       HEL1    421   POPC   H101   2596       0.15      1.008
 10251       CTL2    421   POPC   C211   2597      -0.18     12.011
 10252       HAL2    421   POPC   H11R   2597       0.09      1.008
 10253       HAL2    421   POPC   H11S   2597       0.09      1.008
 10254       CTL2    421   POPC   C212   2598      -0.18     12.011
 10255       HAL2    421   POPC   H12R   2598       0.09      1.008
 10256       HAL2    421   POPC   H12S   2598       0.09      1.008
 10257       CTL2    421   POPC   C213   2599      -0.18     12.011
 10258       HAL2    421   POPC   H13R   2599       0.09      1.008
 10259       HAL2    421   POPC   H13S   2599       0.09      1.008
 10260       CTL2    421   POPC   C214   2600      -0.18     12.011
 10261       HAL2    421   POPC   H14R   2600       0.09      1.008
 10262       HAL2    421   POPC   H14S   2600       0.09      1.008
 10263       CTL2    421   POPC   C215   2601      -0.18     12.011
 10264       HAL2    421   POPC   H15R   2601       0.09      1.008
 10265       HAL2    421   POPC   H15S   2601       0.09      1.008
 10266       CTL2    421   POPC   C216   2602      -0.18     12.011
 10267       HAL2    421   POPC   H16R   2602       0.09      1.008
 10268       HAL2    421   POPC   H16S   2602       0.09      1.008
 10269       CTL2    421   POPC   C217   2603      -0.18     12.011
 10270       HAL2    421   POPC   H17R   2603       0.09      1.008
 10271       HAL2    421   POPC   H17S   2603       0.09      1.008
 10272       CTL3    421   POPC   C218   2604      -0.27     12.011
 10273       HAL3    421   POPC   H18R   2604       0.09      1.008
 10274       HAL3    421   POPC   H18S   2604       0.09      1.008
 10275       HAL3    421   POPC   H18T   2604       0.09      1.008
 10276       CTL2    421   POPC    C33   2605      -0.18     12.011
 10277       HAL2    421   POPC    H3X   2605       0.09      1.008
 10278       HAL2    421   POPC    H3Y   2605       0.09      1.008
 10279       CTL2    421   POPC    C34   2606      -0.18     12.011
 10280       HAL2    421   POPC    H4X   2606       0.09      1.008
 10281       HAL2    421   POPC    H4Y   2606       0.09      1.008
 10282       CTL2    421   POPC    C35   2607      -0.18     12.011
 10283       HAL2    421   POPC    H5X   2607       0.09      1.008
 10284       HAL2    421   POPC    H5Y   2607       0.09      1.008
 10285       CTL2    421   POPC    C36   2608      -0.18     12.011
 10286       HAL2    421   POPC    H6X   2608       0.09      1.008
 10287       HAL2    421   POPC    H6Y   2608       0.09      1.008
 10288       CTL2    421   POPC    C37   2609      -0.18     12.011
 10289       HAL2    421   POPC    H7X   2609       0.09      1.008
 10290       HAL2    421   POPC    H7Y   2609       0.09      1.008
 10291       CTL2    421   POPC    C38   2610      -0.18     12.011
 10292       HAL2    421   POPC    H8X   2610       0.09      1.008
 10293       HAL2    421   POPC    H8Y   2610       0.09      1.008
 10294       CTL2    421   POPC    C39   2611      -0.18     12.011
 10295       HAL2    421   POPC    H9X   2611       0.09      1.008
 10296       HAL2    421   POPC    H9Y   2611       0.09      1.008
 10297       CTL2    421   POPC   C310   2612      -0.18     12.011
 10298       HAL2    421   POPC   H10X   2612       0.09      1.008
 10299       HAL2    421   POPC   H10Y   2612       0.09      1.008
 10300       CTL2    421   POPC   C311   2613      -0.18     12.011
 10301       HAL2    421   POPC   H11X   2613       0.09      1.008
 10302       HAL2    421   POPC   H11Y   2613       0.09      1.008
 10303       CTL2    421   POPC   C312   2614      -0.18     12.011
 10304       HAL2    421   POPC   H12X   2614       0.09      1.008
 10305       HAL2    421   POPC   H12Y   2614       0.09      1.008
 10306       CTL2    421   POPC   C313   2615      -0.18     12.011
 10307       HAL2    421   POPC   H13X   2615       0.09      1.008
 10308       HAL2    421   POPC   H13Y   2615       0.09      1.008
 10309       CTL2    421   POPC   C314   2616      -0.18     12.011
 10310       HAL2    421   POPC   H14X   2616       0.09      1.008
 10311       HAL2    421   POPC   H14Y   2616       0.09      1.008
 10312       CTL2    421   POPC   C315   2617      -0.18     12.011
 10313       HAL2    421   POPC   H15X   2617       0.09      1.008
 10314       HAL2    421   POPC   H15Y   2617       0.09      1.008
 10315       CTL3    421   POPC   C316   2618      -0.27     12.011
 10316       HAL3    421   POPC   H16X   2618       0.09      1.008
 10317       HAL3    421   POPC   H16Y   2618       0.09      1.008
 10318       HAL3    421   POPC   H16Z   2618       0.09      1.008   ; qtot 0
; residue 422 POPC rtp POPC q  0.0
 10319        NTL    422   POPC      N   2619       -0.6     14.007
 10320       CTL2    422   POPC    C12   2619       -0.1     12.011
 10321         HL    422   POPC   H12A   2619       0.25      1.008
 10322         HL    422   POPC   H12B   2619       0.25      1.008
 10323       CTL5    422   POPC    C13   2619      -0.35     12.011
 10324         HL    422   POPC   H13A   2619       0.25      1.008
 10325         HL    422   POPC   H13B   2619       0.25      1.008
 10326         HL    422   POPC   H13C   2619       0.25      1.008
 10327       CTL5    422   POPC    C14   2619      -0.35     12.011
 10328         HL    422   POPC   H14A   2619       0.25      1.008
 10329         HL    422   POPC   H14B   2619       0.25      1.008
 10330         HL    422   POPC   H14C   2619       0.25      1.008
 10331       CTL5    422   POPC    C15   2619      -0.35     12.011
 10332         HL    422   POPC   H15A   2619       0.25      1.008
 10333         HL    422   POPC   H15B   2619       0.25      1.008
 10334         HL    422   POPC   H15C   2619       0.25      1.008
 10335       CTL2    422   POPC    C11   2620      -0.08     12.011
 10336       HAL2    422   POPC   H11A   2620       0.09      1.008
 10337       HAL2    422   POPC   H11B   2620       0.09      1.008
 10338         PL    422   POPC      P   2620        1.5     30.974
 10339        O2L    422   POPC    O13   2620      -0.78    15.9994
 10340        O2L    422   POPC    O14   2620      -0.78    15.9994
 10341       OSLP    422   POPC    O12   2620      -0.57    15.9994
 10342       OSLP    422   POPC    O11   2620      -0.57    15.9994
 10343       CTL2    422   POPC     C1   2620      -0.08     12.011
 10344       HAL2    422   POPC     HA   2620       0.09      1.008
 10345       HAL2    422   POPC     HB   2620       0.09      1.008
 10346       CTL1    422   POPC     C2   2621       0.17     12.011
 10347       HAL1    422   POPC     HS   2621       0.09      1.008
 10348        OSL    422   POPC    O21   2621      -0.49    15.9994
 10349         CL    422   POPC    C21   2621        0.9     12.011
 10350        OBL    422   POPC    O22   2621      -0.63    15.9994
 10351       CTL2    422   POPC    C22   2621      -0.22     12.011
 10352       HAL2    422   POPC    H2R   2621       0.09      1.008
 10353       HAL2    422   POPC    H2S   2621       0.09      1.008
 10354       CTL2    422   POPC     C3   2622       0.08     12.011
 10355       HAL2    422   POPC     HX   2622       0.09      1.008
 10356       HAL2    422   POPC     HY   2622       0.09      1.008
 10357        OSL    422   POPC    O31   2622      -0.49    15.9994
 10358         CL    422   POPC    C31   2622        0.9     12.011
 10359        OBL    422   POPC    O32   2622      -0.63    15.9994
 10360       CTL2    422   POPC    C32   2622      -0.22     12.011
 10361       HAL2    422   POPC    H2X   2622       0.09      1.008
 10362       HAL2    422   POPC    H2Y   2622       0.09      1.008
 10363       CTL2    422   POPC    C23   2623      -0.18     12.011
 10364       HAL2    422   POPC    H3R   2623       0.09      1.008
 10365       HAL2    422   POPC    H3S   2623       0.09      1.008
 10366       CTL2    422   POPC    C24   2624      -0.18     12.011
 10367       HAL2    422   POPC    H4R   2624       0.09      1.008
 10368       HAL2    422   POPC    H4S   2624       0.09      1.008
 10369       CTL2    422   POPC    C25   2625      -0.18     12.011
 10370       HAL2    422   POPC    H5R   2625       0.09      1.008
 10371       HAL2    422   POPC    H5S   2625       0.09      1.008
 10372       CTL2    422   POPC    C26   2626      -0.18     12.011
 10373       HAL2    422   POPC    H6R   2626       0.09      1.008
 10374       HAL2    422   POPC    H6S   2626       0.09      1.008
 10375       CTL2    422   POPC    C27   2627      -0.18     12.011
 10376       HAL2    422   POPC    H7R   2627       0.09      1.008
 10377       HAL2    422   POPC    H7S   2627       0.09      1.008
 10378       CTL2    422   POPC    C28   2628      -0.18     12.011
 10379       HAL2    422   POPC    H8R   2628       0.09      1.008
 10380       HAL2    422   POPC    H8S   2628       0.09      1.008
 10381       CEL1    422   POPC    C29   2629      -0.15     12.011
 10382       HEL1    422   POPC    H91   2629       0.15      1.008
 10383       CEL1    422   POPC   C210   2630      -0.15     12.011
 10384       HEL1    422   POPC   H101   2630       0.15      1.008
 10385       CTL2    422   POPC   C211   2631      -0.18     12.011
 10386       HAL2    422   POPC   H11R   2631       0.09      1.008
 10387       HAL2    422   POPC   H11S   2631       0.09      1.008
 10388       CTL2    422   POPC   C212   2632      -0.18     12.011
 10389       HAL2    422   POPC   H12R   2632       0.09      1.008
 10390       HAL2    422   POPC   H12S   2632       0.09      1.008
 10391       CTL2    422   POPC   C213   2633      -0.18     12.011
 10392       HAL2    422   POPC   H13R   2633       0.09      1.008
 10393       HAL2    422   POPC   H13S   2633       0.09      1.008
 10394       CTL2    422   POPC   C214   2634      -0.18     12.011
 10395       HAL2    422   POPC   H14R   2634       0.09      1.008
 10396       HAL2    422   POPC   H14S   2634       0.09      1.008
 10397       CTL2    422   POPC   C215   2635      -0.18     12.011
 10398       HAL2    422   POPC   H15R   2635       0.09      1.008
 10399       HAL2    422   POPC   H15S   2635       0.09      1.008
 10400       CTL2    422   POPC   C216   2636      -0.18     12.011
 10401       HAL2    422   POPC   H16R   2636       0.09      1.008
 10402       HAL2    422   POPC   H16S   2636       0.09      1.008
 10403       CTL2    422   POPC   C217   2637      -0.18     12.011
 10404       HAL2    422   POPC   H17R   2637       0.09      1.008
 10405       HAL2    422   POPC   H17S   2637       0.09      1.008
 10406       CTL3    422   POPC   C218   2638      -0.27     12.011
 10407       HAL3    422   POPC   H18R   2638       0.09      1.008
 10408       HAL3    422   POPC   H18S   2638       0.09      1.008
 10409       HAL3    422   POPC   H18T   2638       0.09      1.008
 10410       CTL2    422   POPC    C33   2639      -0.18     12.011
 10411       HAL2    422   POPC    H3X   2639       0.09      1.008
 10412       HAL2    422   POPC    H3Y   2639       0.09      1.008
 10413       CTL2    422   POPC    C34   2640      -0.18     12.011
 10414       HAL2    422   POPC    H4X   2640       0.09      1.008
 10415       HAL2    422   POPC    H4Y   2640       0.09      1.008
 10416       CTL2    422   POPC    C35   2641      -0.18     12.011
 10417       HAL2    422   POPC    H5X   2641       0.09      1.008
 10418       HAL2    422   POPC    H5Y   2641       0.09      1.008
 10419       CTL2    422   POPC    C36   2642      -0.18     12.011
 10420       HAL2    422   POPC    H6X   2642       0.09      1.008
 10421       HAL2    422   POPC    H6Y   2642       0.09      1.008
 10422       CTL2    422   POPC    C37   2643      -0.18     12.011
 10423       HAL2    422   POPC    H7X   2643       0.09      1.008
 10424       HAL2    422   POPC    H7Y   2643       0.09      1.008
 10425       CTL2    422   POPC    C38   2644      -0.18     12.011
 10426       HAL2    422   POPC    H8X   2644       0.09      1.008
 10427       HAL2    422   POPC    H8Y   2644       0.09      1.008
 10428       CTL2    422   POPC    C39   2645      -0.18     12.011
 10429       HAL2    422   POPC    H9X   2645       0.09      1.008
 10430       HAL2    422   POPC    H9Y   2645       0.09      1.008
 10431       CTL2    422   POPC   C310   2646      -0.18     12.011
 10432       HAL2    422   POPC   H10X   2646       0.09      1.008
 10433       HAL2    422   POPC   H10Y   2646       0.09      1.008
 10434       CTL2    422   POPC   C311   2647      -0.18     12.011
 10435       HAL2    422   POPC   H11X   2647       0.09      1.008
 10436       HAL2    422   POPC   H11Y   2647       0.09      1.008
 10437       CTL2    422   POPC   C312   2648      -0.18     12.011
 10438       HAL2    422   POPC   H12X   2648       0.09      1.008
 10439       HAL2    422   POPC   H12Y   2648       0.09      1.008
 10440       CTL2    422   POPC   C313   2649      -0.18     12.011
 10441       HAL2    422   POPC   H13X   2649       0.09      1.008
 10442       HAL2    422   POPC   H13Y   2649       0.09      1.008
 10443       CTL2    422   POPC   C314   2650      -0.18     12.011
 10444       HAL2    422   POPC   H14X   2650       0.09      1.008
 10445       HAL2    422   POPC   H14Y   2650       0.09      1.008
 10446       CTL2    422   POPC   C315   2651      -0.18     12.011
 10447       HAL2    422   POPC   H15X   2651       0.09      1.008
 10448       HAL2    422   POPC   H15Y   2651       0.09      1.008
 10449       CTL3    422   POPC   C316   2652      -0.27     12.011
 10450       HAL3    422   POPC   H16X   2652       0.09      1.008
 10451       HAL3    422   POPC   H16Y   2652       0.09      1.008
 10452       HAL3    422   POPC   H16Z   2652       0.09      1.008   ; qtot 0
; residue 423 POPC rtp POPC q  0.0
 10453        NTL    423   POPC      N   2653       -0.6     14.007
 10454       CTL2    423   POPC    C12   2653       -0.1     12.011
 10455         HL    423   POPC   H12A   2653       0.25      1.008
 10456         HL    423   POPC   H12B   2653       0.25      1.008
 10457       CTL5    423   POPC    C13   2653      -0.35     12.011
 10458         HL    423   POPC   H13A   2653       0.25      1.008
 10459         HL    423   POPC   H13B   2653       0.25      1.008
 10460         HL    423   POPC   H13C   2653       0.25      1.008
 10461       CTL5    423   POPC    C14   2653      -0.35     12.011
 10462         HL    423   POPC   H14A   2653       0.25      1.008
 10463         HL    423   POPC   H14B   2653       0.25      1.008
 10464         HL    423   POPC   H14C   2653       0.25      1.008
 10465       CTL5    423   POPC    C15   2653      -0.35     12.011
 10466         HL    423   POPC   H15A   2653       0.25      1.008
 10467         HL    423   POPC   H15B   2653       0.25      1.008
 10468         HL    423   POPC   H15C   2653       0.25      1.008
 10469       CTL2    423   POPC    C11   2654      -0.08     12.011
 10470       HAL2    423   POPC   H11A   2654       0.09      1.008
 10471       HAL2    423   POPC   H11B   2654       0.09      1.008
 10472         PL    423   POPC      P   2654        1.5     30.974
 10473        O2L    423   POPC    O13   2654      -0.78    15.9994
 10474        O2L    423   POPC    O14   2654      -0.78    15.9994
 10475       OSLP    423   POPC    O12   2654      -0.57    15.9994
 10476       OSLP    423   POPC    O11   2654      -0.57    15.9994
 10477       CTL2    423   POPC     C1   2654      -0.08     12.011
 10478       HAL2    423   POPC     HA   2654       0.09      1.008
 10479       HAL2    423   POPC     HB   2654       0.09      1.008
 10480       CTL1    423   POPC     C2   2655       0.17     12.011
 10481       HAL1    423   POPC     HS   2655       0.09      1.008
 10482        OSL    423   POPC    O21   2655      -0.49    15.9994
 10483         CL    423   POPC    C21   2655        0.9     12.011
 10484        OBL    423   POPC    O22   2655      -0.63    15.9994
 10485       CTL2    423   POPC    C22   2655      -0.22     12.011
 10486       HAL2    423   POPC    H2R   2655       0.09      1.008
 10487       HAL2    423   POPC    H2S   2655       0.09      1.008
 10488       CTL2    423   POPC     C3   2656       0.08     12.011
 10489       HAL2    423   POPC     HX   2656       0.09      1.008
 10490       HAL2    423   POPC     HY   2656       0.09      1.008
 10491        OSL    423   POPC    O31   2656      -0.49    15.9994
 10492         CL    423   POPC    C31   2656        0.9     12.011
 10493        OBL    423   POPC    O32   2656      -0.63    15.9994
 10494       CTL2    423   POPC    C32   2656      -0.22     12.011
 10495       HAL2    423   POPC    H2X   2656       0.09      1.008
 10496       HAL2    423   POPC    H2Y   2656       0.09      1.008
 10497       CTL2    423   POPC    C23   2657      -0.18     12.011
 10498       HAL2    423   POPC    H3R   2657       0.09      1.008
 10499       HAL2    423   POPC    H3S   2657       0.09      1.008
 10500       CTL2    423   POPC    C24   2658      -0.18     12.011
 10501       HAL2    423   POPC    H4R   2658       0.09      1.008
 10502       HAL2    423   POPC    H4S   2658       0.09      1.008
 10503       CTL2    423   POPC    C25   2659      -0.18     12.011
 10504       HAL2    423   POPC    H5R   2659       0.09      1.008
 10505       HAL2    423   POPC    H5S   2659       0.09      1.008
 10506       CTL2    423   POPC    C26   2660      -0.18     12.011
 10507       HAL2    423   POPC    H6R   2660       0.09      1.008
 10508       HAL2    423   POPC    H6S   2660       0.09      1.008
 10509       CTL2    423   POPC    C27   2661      -0.18     12.011
 10510       HAL2    423   POPC    H7R   2661       0.09      1.008
 10511       HAL2    423   POPC    H7S   2661       0.09      1.008
 10512       CTL2    423   POPC    C28   2662      -0.18     12.011
 10513       HAL2    423   POPC    H8R   2662       0.09      1.008
 10514       HAL2    423   POPC    H8S   2662       0.09      1.008
 10515       CEL1    423   POPC    C29   2663      -0.15     12.011
 10516       HEL1    423   POPC    H91   2663       0.15      1.008
 10517       CEL1    423   POPC   C210   2664      -0.15     12.011
 10518       HEL1    423   POPC   H101   2664       0.15      1.008
 10519       CTL2    423   POPC   C211   2665      -0.18     12.011
 10520       HAL2    423   POPC   H11R   2665       0.09      1.008
 10521       HAL2    423   POPC   H11S   2665       0.09      1.008
 10522       CTL2    423   POPC   C212   2666      -0.18     12.011
 10523       HAL2    423   POPC   H12R   2666       0.09      1.008
 10524       HAL2    423   POPC   H12S   2666       0.09      1.008
 10525       CTL2    423   POPC   C213   2667      -0.18     12.011
 10526       HAL2    423   POPC   H13R   2667       0.09      1.008
 10527       HAL2    423   POPC   H13S   2667       0.09      1.008
 10528       CTL2    423   POPC   C214   2668      -0.18     12.011
 10529       HAL2    423   POPC   H14R   2668       0.09      1.008
 10530       HAL2    423   POPC   H14S   2668       0.09      1.008
 10531       CTL2    423   POPC   C215   2669      -0.18     12.011
 10532       HAL2    423   POPC   H15R   2669       0.09      1.008
 10533       HAL2    423   POPC   H15S   2669       0.09      1.008
 10534       CTL2    423   POPC   C216   2670      -0.18     12.011
 10535       HAL2    423   POPC   H16R   2670       0.09      1.008
 10536       HAL2    423   POPC   H16S   2670       0.09      1.008
 10537       CTL2    423   POPC   C217   2671      -0.18     12.011
 10538       HAL2    423   POPC   H17R   2671       0.09      1.008
 10539       HAL2    423   POPC   H17S   2671       0.09      1.008
 10540       CTL3    423   POPC   C218   2672      -0.27     12.011
 10541       HAL3    423   POPC   H18R   2672       0.09      1.008
 10542       HAL3    423   POPC   H18S   2672       0.09      1.008
 10543       HAL3    423   POPC   H18T   2672       0.09      1.008
 10544       CTL2    423   POPC    C33   2673      -0.18     12.011
 10545       HAL2    423   POPC    H3X   2673       0.09      1.008
 10546       HAL2    423   POPC    H3Y   2673       0.09      1.008
 10547       CTL2    423   POPC    C34   2674      -0.18     12.011
 10548       HAL2    423   POPC    H4X   2674       0.09      1.008
 10549       HAL2    423   POPC    H4Y   2674       0.09      1.008
 10550       CTL2    423   POPC    C35   2675      -0.18     12.011
 10551       HAL2    423   POPC    H5X   2675       0.09      1.008
 10552       HAL2    423   POPC    H5Y   2675       0.09      1.008
 10553       CTL2    423   POPC    C36   2676      -0.18     12.011
 10554       HAL2    423   POPC    H6X   2676       0.09      1.008
 10555       HAL2    423   POPC    H6Y   2676       0.09      1.008
 10556       CTL2    423   POPC    C37   2677      -0.18     12.011
 10557       HAL2    423   POPC    H7X   2677       0.09      1.008
 10558       HAL2    423   POPC    H7Y   2677       0.09      1.008
 10559       CTL2    423   POPC    C38   2678      -0.18     12.011
 10560       HAL2    423   POPC    H8X   2678       0.09      1.008
 10561       HAL2    423   POPC    H8Y   2678       0.09      1.008
 10562       CTL2    423   POPC    C39   2679      -0.18     12.011
 10563       HAL2    423   POPC    H9X   2679       0.09      1.008
 10564       HAL2    423   POPC    H9Y   2679       0.09      1.008
 10565       CTL2    423   POPC   C310   2680      -0.18     12.011
 10566       HAL2    423   POPC   H10X   2680       0.09      1.008
 10567       HAL2    423   POPC   H10Y   2680       0.09      1.008
 10568       CTL2    423   POPC   C311   2681      -0.18     12.011
 10569       HAL2    423   POPC   H11X   2681       0.09      1.008
 10570       HAL2    423   POPC   H11Y   2681       0.09      1.008
 10571       CTL2    423   POPC   C312   2682      -0.18     12.011
 10572       HAL2    423   POPC   H12X   2682       0.09      1.008
 10573       HAL2    423   POPC   H12Y   2682       0.09      1.008
 10574       CTL2    423   POPC   C313   2683      -0.18     12.011
 10575       HAL2    423   POPC   H13X   2683       0.09      1.008
 10576       HAL2    423   POPC   H13Y   2683       0.09      1.008
 10577       CTL2    423   POPC   C314   2684      -0.18     12.011
 10578       HAL2    423   POPC   H14X   2684       0.09      1.008
 10579       HAL2    423   POPC   H14Y   2684       0.09      1.008
 10580       CTL2    423   POPC   C315   2685      -0.18     12.011
 10581       HAL2    423   POPC   H15X   2685       0.09      1.008
 10582       HAL2    423   POPC   H15Y   2685       0.09      1.008
 10583       CTL3    423   POPC   C316   2686      -0.27     12.011
 10584       HAL3    423   POPC   H16X   2686       0.09      1.008
 10585       HAL3    423   POPC   H16Y   2686       0.09      1.008
 10586       HAL3    423   POPC   H16Z   2686       0.09      1.008   ; qtot 0
; residue 424 POPC rtp POPC q  0.0
 10587        NTL    424   POPC      N   2687       -0.6     14.007
 10588       CTL2    424   POPC    C12   2687       -0.1     12.011
 10589         HL    424   POPC   H12A   2687       0.25      1.008
 10590         HL    424   POPC   H12B   2687       0.25      1.008
 10591       CTL5    424   POPC    C13   2687      -0.35     12.011
 10592         HL    424   POPC   H13A   2687       0.25      1.008
 10593         HL    424   POPC   H13B   2687       0.25      1.008
 10594         HL    424   POPC   H13C   2687       0.25      1.008
 10595       CTL5    424   POPC    C14   2687      -0.35     12.011
 10596         HL    424   POPC   H14A   2687       0.25      1.008
 10597         HL    424   POPC   H14B   2687       0.25      1.008
 10598         HL    424   POPC   H14C   2687       0.25      1.008
 10599       CTL5    424   POPC    C15   2687      -0.35     12.011
 10600         HL    424   POPC   H15A   2687       0.25      1.008
 10601         HL    424   POPC   H15B   2687       0.25      1.008
 10602         HL    424   POPC   H15C   2687       0.25      1.008
 10603       CTL2    424   POPC    C11   2688      -0.08     12.011
 10604       HAL2    424   POPC   H11A   2688       0.09      1.008
 10605       HAL2    424   POPC   H11B   2688       0.09      1.008
 10606         PL    424   POPC      P   2688        1.5     30.974
 10607        O2L    424   POPC    O13   2688      -0.78    15.9994
 10608        O2L    424   POPC    O14   2688      -0.78    15.9994
 10609       OSLP    424   POPC    O12   2688      -0.57    15.9994
 10610       OSLP    424   POPC    O11   2688      -0.57    15.9994
 10611       CTL2    424   POPC     C1   2688      -0.08     12.011
 10612       HAL2    424   POPC     HA   2688       0.09      1.008
 10613       HAL2    424   POPC     HB   2688       0.09      1.008
 10614       CTL1    424   POPC     C2   2689       0.17     12.011
 10615       HAL1    424   POPC     HS   2689       0.09      1.008
 10616        OSL    424   POPC    O21   2689      -0.49    15.9994
 10617         CL    424   POPC    C21   2689        0.9     12.011
 10618        OBL    424   POPC    O22   2689      -0.63    15.9994
 10619       CTL2    424   POPC    C22   2689      -0.22     12.011
 10620       HAL2    424   POPC    H2R   2689       0.09      1.008
 10621       HAL2    424   POPC    H2S   2689       0.09      1.008
 10622       CTL2    424   POPC     C3   2690       0.08     12.011
 10623       HAL2    424   POPC     HX   2690       0.09      1.008
 10624       HAL2    424   POPC     HY   2690       0.09      1.008
 10625        OSL    424   POPC    O31   2690      -0.49    15.9994
 10626         CL    424   POPC    C31   2690        0.9     12.011
 10627        OBL    424   POPC    O32   2690      -0.63    15.9994
 10628       CTL2    424   POPC    C32   2690      -0.22     12.011
 10629       HAL2    424   POPC    H2X   2690       0.09      1.008
 10630       HAL2    424   POPC    H2Y   2690       0.09      1.008
 10631       CTL2    424   POPC    C23   2691      -0.18     12.011
 10632       HAL2    424   POPC    H3R   2691       0.09      1.008
 10633       HAL2    424   POPC    H3S   2691       0.09      1.008
 10634       CTL2    424   POPC    C24   2692      -0.18     12.011
 10635       HAL2    424   POPC    H4R   2692       0.09      1.008
 10636       HAL2    424   POPC    H4S   2692       0.09      1.008
 10637       CTL2    424   POPC    C25   2693      -0.18     12.011
 10638       HAL2    424   POPC    H5R   2693       0.09      1.008
 10639       HAL2    424   POPC    H5S   2693       0.09      1.008
 10640       CTL2    424   POPC    C26   2694      -0.18     12.011
 10641       HAL2    424   POPC    H6R   2694       0.09      1.008
 10642       HAL2    424   POPC    H6S   2694       0.09      1.008
 10643       CTL2    424   POPC    C27   2695      -0.18     12.011
 10644       HAL2    424   POPC    H7R   2695       0.09      1.008
 10645       HAL2    424   POPC    H7S   2695       0.09      1.008
 10646       CTL2    424   POPC    C28   2696      -0.18     12.011
 10647       HAL2    424   POPC    H8R   2696       0.09      1.008
 10648       HAL2    424   POPC    H8S   2696       0.09      1.008
 10649       CEL1    424   POPC    C29   2697      -0.15     12.011
 10650       HEL1    424   POPC    H91   2697       0.15      1.008
 10651       CEL1    424   POPC   C210   2698      -0.15     12.011
 10652       HEL1    424   POPC   H101   2698       0.15      1.008
 10653       CTL2    424   POPC   C211   2699      -0.18     12.011
 10654       HAL2    424   POPC   H11R   2699       0.09      1.008
 10655       HAL2    424   POPC   H11S   2699       0.09      1.008
 10656       CTL2    424   POPC   C212   2700      -0.18     12.011
 10657       HAL2    424   POPC   H12R   2700       0.09      1.008
 10658       HAL2    424   POPC   H12S   2700       0.09      1.008
 10659       CTL2    424   POPC   C213   2701      -0.18     12.011
 10660       HAL2    424   POPC   H13R   2701       0.09      1.008
 10661       HAL2    424   POPC   H13S   2701       0.09      1.008
 10662       CTL2    424   POPC   C214   2702      -0.18     12.011
 10663       HAL2    424   POPC   H14R   2702       0.09      1.008
 10664       HAL2    424   POPC   H14S   2702       0.09      1.008
 10665       CTL2    424   POPC   C215   2703      -0.18     12.011
 10666       HAL2    424   POPC   H15R   2703       0.09      1.008
 10667       HAL2    424   POPC   H15S   2703       0.09      1.008
 10668       CTL2    424   POPC   C216   2704      -0.18     12.011
 10669       HAL2    424   POPC   H16R   2704       0.09      1.008
 10670       HAL2    424   POPC   H16S   2704       0.09      1.008
 10671       CTL2    424   POPC   C217   2705      -0.18     12.011
 10672       HAL2    424   POPC   H17R   2705       0.09      1.008
 10673       HAL2    424   POPC   H17S   2705       0.09      1.008
 10674       CTL3    424   POPC   C218   2706      -0.27     12.011
 10675       HAL3    424   POPC   H18R   2706       0.09      1.008
 10676       HAL3    424   POPC   H18S   2706       0.09      1.008
 10677       HAL3    424   POPC   H18T   2706       0.09      1.008
 10678       CTL2    424   POPC    C33   2707      -0.18     12.011
 10679       HAL2    424   POPC    H3X   2707       0.09      1.008
 10680       HAL2    424   POPC    H3Y   2707       0.09      1.008
 10681       CTL2    424   POPC    C34   2708      -0.18     12.011
 10682       HAL2    424   POPC    H4X   2708       0.09      1.008
 10683       HAL2    424   POPC    H4Y   2708       0.09      1.008
 10684       CTL2    424   POPC    C35   2709      -0.18     12.011
 10685       HAL2    424   POPC    H5X   2709       0.09      1.008
 10686       HAL2    424   POPC    H5Y   2709       0.09      1.008
 10687       CTL2    424   POPC    C36   2710      -0.18     12.011
 10688       HAL2    424   POPC    H6X   2710       0.09      1.008
 10689       HAL2    424   POPC    H6Y   2710       0.09      1.008
 10690       CTL2    424   POPC    C37   2711      -0.18     12.011
 10691       HAL2    424   POPC    H7X   2711       0.09      1.008
 10692       HAL2    424   POPC    H7Y   2711       0.09      1.008
 10693       CTL2    424   POPC    C38   2712      -0.18     12.011
 10694       HAL2    424   POPC    H8X   2712       0.09      1.008
 10695       HAL2    424   POPC    H8Y   2712       0.09      1.008
 10696       CTL2    424   POPC    C39   2713      -0.18     12.011
 10697       HAL2    424   POPC    H9X   2713       0.09      1.008
 10698       HAL2    424   POPC    H9Y   2713       0.09      1.008
 10699       CTL2    424   POPC   C310   2714      -0.18     12.011
 10700       HAL2    424   POPC   H10X   2714       0.09      1.008
 10701       HAL2    424   POPC   H10Y   2714       0.09      1.008
 10702       CTL2    424   POPC   C311   2715      -0.18     12.011
 10703       HAL2    424   POPC   H11X   2715       0.09      1.008
 10704       HAL2    424   POPC   H11Y   2715       0.09      1.008
 10705       CTL2    424   POPC   C312   2716      -0.18     12.011
 10706       HAL2    424   POPC   H12X   2716       0.09      1.008
 10707       HAL2    424   POPC   H12Y   2716       0.09      1.008
 10708       CTL2    424   POPC   C313   2717      -0.18     12.011
 10709       HAL2    424   POPC   H13X   2717       0.09      1.008
 10710       HAL2    424   POPC   H13Y   2717       0.09      1.008
 10711       CTL2    424   POPC   C314   2718      -0.18     12.011
 10712       HAL2    424   POPC   H14X   2718       0.09      1.008
 10713       HAL2    424   POPC   H14Y   2718       0.09      1.008
 10714       CTL2    424   POPC   C315   2719      -0.18     12.011
 10715       HAL2    424   POPC   H15X   2719       0.09      1.008
 10716       HAL2    424   POPC   H15Y   2719       0.09      1.008
 10717       CTL3    424   POPC   C316   2720      -0.27     12.011
 10718       HAL3    424   POPC   H16X   2720       0.09      1.008
 10719       HAL3    424   POPC   H16Y   2720       0.09      1.008
 10720       HAL3    424   POPC   H16Z   2720       0.09      1.008   ; qtot 0
; residue 425 POPC rtp POPC q  0.0
 10721        NTL    425   POPC      N   2721       -0.6     14.007
 10722       CTL2    425   POPC    C12   2721       -0.1     12.011
 10723         HL    425   POPC   H12A   2721       0.25      1.008
 10724         HL    425   POPC   H12B   2721       0.25      1.008
 10725       CTL5    425   POPC    C13   2721      -0.35     12.011
 10726         HL    425   POPC   H13A   2721       0.25      1.008
 10727         HL    425   POPC   H13B   2721       0.25      1.008
 10728         HL    425   POPC   H13C   2721       0.25      1.008
 10729       CTL5    425   POPC    C14   2721      -0.35     12.011
 10730         HL    425   POPC   H14A   2721       0.25      1.008
 10731         HL    425   POPC   H14B   2721       0.25      1.008
 10732         HL    425   POPC   H14C   2721       0.25      1.008
 10733       CTL5    425   POPC    C15   2721      -0.35     12.011
 10734         HL    425   POPC   H15A   2721       0.25      1.008
 10735         HL    425   POPC   H15B   2721       0.25      1.008
 10736         HL    425   POPC   H15C   2721       0.25      1.008
 10737       CTL2    425   POPC    C11   2722      -0.08     12.011
 10738       HAL2    425   POPC   H11A   2722       0.09      1.008
 10739       HAL2    425   POPC   H11B   2722       0.09      1.008
 10740         PL    425   POPC      P   2722        1.5     30.974
 10741        O2L    425   POPC    O13   2722      -0.78    15.9994
 10742        O2L    425   POPC    O14   2722      -0.78    15.9994
 10743       OSLP    425   POPC    O12   2722      -0.57    15.9994
 10744       OSLP    425   POPC    O11   2722      -0.57    15.9994
 10745       CTL2    425   POPC     C1   2722      -0.08     12.011
 10746       HAL2    425   POPC     HA   2722       0.09      1.008
 10747       HAL2    425   POPC     HB   2722       0.09      1.008
 10748       CTL1    425   POPC     C2   2723       0.17     12.011
 10749       HAL1    425   POPC     HS   2723       0.09      1.008
 10750        OSL    425   POPC    O21   2723      -0.49    15.9994
 10751         CL    425   POPC    C21   2723        0.9     12.011
 10752        OBL    425   POPC    O22   2723      -0.63    15.9994
 10753       CTL2    425   POPC    C22   2723      -0.22     12.011
 10754       HAL2    425   POPC    H2R   2723       0.09      1.008
 10755       HAL2    425   POPC    H2S   2723       0.09      1.008
 10756       CTL2    425   POPC     C3   2724       0.08     12.011
 10757       HAL2    425   POPC     HX   2724       0.09      1.008
 10758       HAL2    425   POPC     HY   2724       0.09      1.008
 10759        OSL    425   POPC    O31   2724      -0.49    15.9994
 10760         CL    425   POPC    C31   2724        0.9     12.011
 10761        OBL    425   POPC    O32   2724      -0.63    15.9994
 10762       CTL2    425   POPC    C32   2724      -0.22     12.011
 10763       HAL2    425   POPC    H2X   2724       0.09      1.008
 10764       HAL2    425   POPC    H2Y   2724       0.09      1.008
 10765       CTL2    425   POPC    C23   2725      -0.18     12.011
 10766       HAL2    425   POPC    H3R   2725       0.09      1.008
 10767       HAL2    425   POPC    H3S   2725       0.09      1.008
 10768       CTL2    425   POPC    C24   2726      -0.18     12.011
 10769       HAL2    425   POPC    H4R   2726       0.09      1.008
 10770       HAL2    425   POPC    H4S   2726       0.09      1.008
 10771       CTL2    425   POPC    C25   2727      -0.18     12.011
 10772       HAL2    425   POPC    H5R   2727       0.09      1.008
 10773       HAL2    425   POPC    H5S   2727       0.09      1.008
 10774       CTL2    425   POPC    C26   2728      -0.18     12.011
 10775       HAL2    425   POPC    H6R   2728       0.09      1.008
 10776       HAL2    425   POPC    H6S   2728       0.09      1.008
 10777       CTL2    425   POPC    C27   2729      -0.18     12.011
 10778       HAL2    425   POPC    H7R   2729       0.09      1.008
 10779       HAL2    425   POPC    H7S   2729       0.09      1.008
 10780       CTL2    425   POPC    C28   2730      -0.18     12.011
 10781       HAL2    425   POPC    H8R   2730       0.09      1.008
 10782       HAL2    425   POPC    H8S   2730       0.09      1.008
 10783       CEL1    425   POPC    C29   2731      -0.15     12.011
 10784       HEL1    425   POPC    H91   2731       0.15      1.008
 10785       CEL1    425   POPC   C210   2732      -0.15     12.011
 10786       HEL1    425   POPC   H101   2732       0.15      1.008
 10787       CTL2    425   POPC   C211   2733      -0.18     12.011
 10788       HAL2    425   POPC   H11R   2733       0.09      1.008
 10789       HAL2    425   POPC   H11S   2733       0.09      1.008
 10790       CTL2    425   POPC   C212   2734      -0.18     12.011
 10791       HAL2    425   POPC   H12R   2734       0.09      1.008
 10792       HAL2    425   POPC   H12S   2734       0.09      1.008
 10793       CTL2    425   POPC   C213   2735      -0.18     12.011
 10794       HAL2    425   POPC   H13R   2735       0.09      1.008
 10795       HAL2    425   POPC   H13S   2735       0.09      1.008
 10796       CTL2    425   POPC   C214   2736      -0.18     12.011
 10797       HAL2    425   POPC   H14R   2736       0.09      1.008
 10798       HAL2    425   POPC   H14S   2736       0.09      1.008
 10799       CTL2    425   POPC   C215   2737      -0.18     12.011
 10800       HAL2    425   POPC   H15R   2737       0.09      1.008
 10801       HAL2    425   POPC   H15S   2737       0.09      1.008
 10802       CTL2    425   POPC   C216   2738      -0.18     12.011
 10803       HAL2    425   POPC   H16R   2738       0.09      1.008
 10804       HAL2    425   POPC   H16S   2738       0.09      1.008
 10805       CTL2    425   POPC   C217   2739      -0.18     12.011
 10806       HAL2    425   POPC   H17R   2739       0.09      1.008
 10807       HAL2    425   POPC   H17S   2739       0.09      1.008
 10808       CTL3    425   POPC   C218   2740      -0.27     12.011
 10809       HAL3    425   POPC   H18R   2740       0.09      1.008
 10810       HAL3    425   POPC   H18S   2740       0.09      1.008
 10811       HAL3    425   POPC   H18T   2740       0.09      1.008
 10812       CTL2    425   POPC    C33   2741      -0.18     12.011
 10813       HAL2    425   POPC    H3X   2741       0.09      1.008
 10814       HAL2    425   POPC    H3Y   2741       0.09      1.008
 10815       CTL2    425   POPC    C34   2742      -0.18     12.011
 10816       HAL2    425   POPC    H4X   2742       0.09      1.008
 10817       HAL2    425   POPC    H4Y   2742       0.09      1.008
 10818       CTL2    425   POPC    C35   2743      -0.18     12.011
 10819       HAL2    425   POPC    H5X   2743       0.09      1.008
 10820       HAL2    425   POPC    H5Y   2743       0.09      1.008
 10821       CTL2    425   POPC    C36   2744      -0.18     12.011
 10822       HAL2    425   POPC    H6X   2744       0.09      1.008
 10823       HAL2    425   POPC    H6Y   2744       0.09      1.008
 10824       CTL2    425   POPC    C37   2745      -0.18     12.011
 10825       HAL2    425   POPC    H7X   2745       0.09      1.008
 10826       HAL2    425   POPC    H7Y   2745       0.09      1.008
 10827       CTL2    425   POPC    C38   2746      -0.18     12.011
 10828       HAL2    425   POPC    H8X   2746       0.09      1.008
 10829       HAL2    425   POPC    H8Y   2746       0.09      1.008
 10830       CTL2    425   POPC    C39   2747      -0.18     12.011
 10831       HAL2    425   POPC    H9X   2747       0.09      1.008
 10832       HAL2    425   POPC    H9Y   2747       0.09      1.008
 10833       CTL2    425   POPC   C310   2748      -0.18     12.011
 10834       HAL2    425   POPC   H10X   2748       0.09      1.008
 10835       HAL2    425   POPC   H10Y   2748       0.09      1.008
 10836       CTL2    425   POPC   C311   2749      -0.18     12.011
 10837       HAL2    425   POPC   H11X   2749       0.09      1.008
 10838       HAL2    425   POPC   H11Y   2749       0.09      1.008
 10839       CTL2    425   POPC   C312   2750      -0.18     12.011
 10840       HAL2    425   POPC   H12X   2750       0.09      1.008
 10841       HAL2    425   POPC   H12Y   2750       0.09      1.008
 10842       CTL2    425   POPC   C313   2751      -0.18     12.011
 10843       HAL2    425   POPC   H13X   2751       0.09      1.008
 10844       HAL2    425   POPC   H13Y   2751       0.09      1.008
 10845       CTL2    425   POPC   C314   2752      -0.18     12.011
 10846       HAL2    425   POPC   H14X   2752       0.09      1.008
 10847       HAL2    425   POPC   H14Y   2752       0.09      1.008
 10848       CTL2    425   POPC   C315   2753      -0.18     12.011
 10849       HAL2    425   POPC   H15X   2753       0.09      1.008
 10850       HAL2    425   POPC   H15Y   2753       0.09      1.008
 10851       CTL3    425   POPC   C316   2754      -0.27     12.011
 10852       HAL3    425   POPC   H16X   2754       0.09      1.008
 10853       HAL3    425   POPC   H16Y   2754       0.09      1.008
 10854       HAL3    425   POPC   H16Z   2754       0.09      1.008   ; qtot 0
; residue 426 POPC rtp POPC q  0.0
 10855        NTL    426   POPC      N   2755       -0.6     14.007
 10856       CTL2    426   POPC    C12   2755       -0.1     12.011
 10857         HL    426   POPC   H12A   2755       0.25      1.008
 10858         HL    426   POPC   H12B   2755       0.25      1.008
 10859       CTL5    426   POPC    C13   2755      -0.35     12.011
 10860         HL    426   POPC   H13A   2755       0.25      1.008
 10861         HL    426   POPC   H13B   2755       0.25      1.008
 10862         HL    426   POPC   H13C   2755       0.25      1.008
 10863       CTL5    426   POPC    C14   2755      -0.35     12.011
 10864         HL    426   POPC   H14A   2755       0.25      1.008
 10865         HL    426   POPC   H14B   2755       0.25      1.008
 10866         HL    426   POPC   H14C   2755       0.25      1.008
 10867       CTL5    426   POPC    C15   2755      -0.35     12.011
 10868         HL    426   POPC   H15A   2755       0.25      1.008
 10869         HL    426   POPC   H15B   2755       0.25      1.008
 10870         HL    426   POPC   H15C   2755       0.25      1.008
 10871       CTL2    426   POPC    C11   2756      -0.08     12.011
 10872       HAL2    426   POPC   H11A   2756       0.09      1.008
 10873       HAL2    426   POPC   H11B   2756       0.09      1.008
 10874         PL    426   POPC      P   2756        1.5     30.974
 10875        O2L    426   POPC    O13   2756      -0.78    15.9994
 10876        O2L    426   POPC    O14   2756      -0.78    15.9994
 10877       OSLP    426   POPC    O12   2756      -0.57    15.9994
 10878       OSLP    426   POPC    O11   2756      -0.57    15.9994
 10879       CTL2    426   POPC     C1   2756      -0.08     12.011
 10880       HAL2    426   POPC     HA   2756       0.09      1.008
 10881       HAL2    426   POPC     HB   2756       0.09      1.008
 10882       CTL1    426   POPC     C2   2757       0.17     12.011
 10883       HAL1    426   POPC     HS   2757       0.09      1.008
 10884        OSL    426   POPC    O21   2757      -0.49    15.9994
 10885         CL    426   POPC    C21   2757        0.9     12.011
 10886        OBL    426   POPC    O22   2757      -0.63    15.9994
 10887       CTL2    426   POPC    C22   2757      -0.22     12.011
 10888       HAL2    426   POPC    H2R   2757       0.09      1.008
 10889       HAL2    426   POPC    H2S   2757       0.09      1.008
 10890       CTL2    426   POPC     C3   2758       0.08     12.011
 10891       HAL2    426   POPC     HX   2758       0.09      1.008
 10892       HAL2    426   POPC     HY   2758       0.09      1.008
 10893        OSL    426   POPC    O31   2758      -0.49    15.9994
 10894         CL    426   POPC    C31   2758        0.9     12.011
 10895        OBL    426   POPC    O32   2758      -0.63    15.9994
 10896       CTL2    426   POPC    C32   2758      -0.22     12.011
 10897       HAL2    426   POPC    H2X   2758       0.09      1.008
 10898       HAL2    426   POPC    H2Y   2758       0.09      1.008
 10899       CTL2    426   POPC    C23   2759      -0.18     12.011
 10900       HAL2    426   POPC    H3R   2759       0.09      1.008
 10901       HAL2    426   POPC    H3S   2759       0.09      1.008
 10902       CTL2    426   POPC    C24   2760      -0.18     12.011
 10903       HAL2    426   POPC    H4R   2760       0.09      1.008
 10904       HAL2    426   POPC    H4S   2760       0.09      1.008
 10905       CTL2    426   POPC    C25   2761      -0.18     12.011
 10906       HAL2    426   POPC    H5R   2761       0.09      1.008
 10907       HAL2    426   POPC    H5S   2761       0.09      1.008
 10908       CTL2    426   POPC    C26   2762      -0.18     12.011
 10909       HAL2    426   POPC    H6R   2762       0.09      1.008
 10910       HAL2    426   POPC    H6S   2762       0.09      1.008
 10911       CTL2    426   POPC    C27   2763      -0.18     12.011
 10912       HAL2    426   POPC    H7R   2763       0.09      1.008
 10913       HAL2    426   POPC    H7S   2763       0.09      1.008
 10914       CTL2    426   POPC    C28   2764      -0.18     12.011
 10915       HAL2    426   POPC    H8R   2764       0.09      1.008
 10916       HAL2    426   POPC    H8S   2764       0.09      1.008
 10917       CEL1    426   POPC    C29   2765      -0.15     12.011
 10918       HEL1    426   POPC    H91   2765       0.15      1.008
 10919       CEL1    426   POPC   C210   2766      -0.15     12.011
 10920       HEL1    426   POPC   H101   2766       0.15      1.008
 10921       CTL2    426   POPC   C211   2767      -0.18     12.011
 10922       HAL2    426   POPC   H11R   2767       0.09      1.008
 10923       HAL2    426   POPC   H11S   2767       0.09      1.008
 10924       CTL2    426   POPC   C212   2768      -0.18     12.011
 10925       HAL2    426   POPC   H12R   2768       0.09      1.008
 10926       HAL2    426   POPC   H12S   2768       0.09      1.008
 10927       CTL2    426   POPC   C213   2769      -0.18     12.011
 10928       HAL2    426   POPC   H13R   2769       0.09      1.008
 10929       HAL2    426   POPC   H13S   2769       0.09      1.008
 10930       CTL2    426   POPC   C214   2770      -0.18     12.011
 10931       HAL2    426   POPC   H14R   2770       0.09      1.008
 10932       HAL2    426   POPC   H14S   2770       0.09      1.008
 10933       CTL2    426   POPC   C215   2771      -0.18     12.011
 10934       HAL2    426   POPC   H15R   2771       0.09      1.008
 10935       HAL2    426   POPC   H15S   2771       0.09      1.008
 10936       CTL2    426   POPC   C216   2772      -0.18     12.011
 10937       HAL2    426   POPC   H16R   2772       0.09      1.008
 10938       HAL2    426   POPC   H16S   2772       0.09      1.008
 10939       CTL2    426   POPC   C217   2773      -0.18     12.011
 10940       HAL2    426   POPC   H17R   2773       0.09      1.008
 10941       HAL2    426   POPC   H17S   2773       0.09      1.008
 10942       CTL3    426   POPC   C218   2774      -0.27     12.011
 10943       HAL3    426   POPC   H18R   2774       0.09      1.008
 10944       HAL3    426   POPC   H18S   2774       0.09      1.008
 10945       HAL3    426   POPC   H18T   2774       0.09      1.008
 10946       CTL2    426   POPC    C33   2775      -0.18     12.011
 10947       HAL2    426   POPC    H3X   2775       0.09      1.008
 10948       HAL2    426   POPC    H3Y   2775       0.09      1.008
 10949       CTL2    426   POPC    C34   2776      -0.18     12.011
 10950       HAL2    426   POPC    H4X   2776       0.09      1.008
 10951       HAL2    426   POPC    H4Y   2776       0.09      1.008
 10952       CTL2    426   POPC    C35   2777      -0.18     12.011
 10953       HAL2    426   POPC    H5X   2777       0.09      1.008
 10954       HAL2    426   POPC    H5Y   2777       0.09      1.008
 10955       CTL2    426   POPC    C36   2778      -0.18     12.011
 10956       HAL2    426   POPC    H6X   2778       0.09      1.008
 10957       HAL2    426   POPC    H6Y   2778       0.09      1.008
 10958       CTL2    426   POPC    C37   2779      -0.18     12.011
 10959       HAL2    426   POPC    H7X   2779       0.09      1.008
 10960       HAL2    426   POPC    H7Y   2779       0.09      1.008
 10961       CTL2    426   POPC    C38   2780      -0.18     12.011
 10962       HAL2    426   POPC    H8X   2780       0.09      1.008
 10963       HAL2    426   POPC    H8Y   2780       0.09      1.008
 10964       CTL2    426   POPC    C39   2781      -0.18     12.011
 10965       HAL2    426   POPC    H9X   2781       0.09      1.008
 10966       HAL2    426   POPC    H9Y   2781       0.09      1.008
 10967       CTL2    426   POPC   C310   2782      -0.18     12.011
 10968       HAL2    426   POPC   H10X   2782       0.09      1.008
 10969       HAL2    426   POPC   H10Y   2782       0.09      1.008
 10970       CTL2    426   POPC   C311   2783      -0.18     12.011
 10971       HAL2    426   POPC   H11X   2783       0.09      1.008
 10972       HAL2    426   POPC   H11Y   2783       0.09      1.008
 10973       CTL2    426   POPC   C312   2784      -0.18     12.011
 10974       HAL2    426   POPC   H12X   2784       0.09      1.008
 10975       HAL2    426   POPC   H12Y   2784       0.09      1.008
 10976       CTL2    426   POPC   C313   2785      -0.18     12.011
 10977       HAL2    426   POPC   H13X   2785       0.09      1.008
 10978       HAL2    426   POPC   H13Y   2785       0.09      1.008
 10979       CTL2    426   POPC   C314   2786      -0.18     12.011
 10980       HAL2    426   POPC   H14X   2786       0.09      1.008
 10981       HAL2    426   POPC   H14Y   2786       0.09      1.008
 10982       CTL2    426   POPC   C315   2787      -0.18     12.011
 10983       HAL2    426   POPC   H15X   2787       0.09      1.008
 10984       HAL2    426   POPC   H15Y   2787       0.09      1.008
 10985       CTL3    426   POPC   C316   2788      -0.27     12.011
 10986       HAL3    426   POPC   H16X   2788       0.09      1.008
 10987       HAL3    426   POPC   H16Y   2788       0.09      1.008
 10988       HAL3    426   POPC   H16Z   2788       0.09      1.008   ; qtot 0
; residue 427 POPC rtp POPC q  0.0
 10989        NTL    427   POPC      N   2789       -0.6     14.007
 10990       CTL2    427   POPC    C12   2789       -0.1     12.011
 10991         HL    427   POPC   H12A   2789       0.25      1.008
 10992         HL    427   POPC   H12B   2789       0.25      1.008
 10993       CTL5    427   POPC    C13   2789      -0.35     12.011
 10994         HL    427   POPC   H13A   2789       0.25      1.008
 10995         HL    427   POPC   H13B   2789       0.25      1.008
 10996         HL    427   POPC   H13C   2789       0.25      1.008
 10997       CTL5    427   POPC    C14   2789      -0.35     12.011
 10998         HL    427   POPC   H14A   2789       0.25      1.008
 10999         HL    427   POPC   H14B   2789       0.25      1.008
 11000         HL    427   POPC   H14C   2789       0.25      1.008
 11001       CTL5    427   POPC    C15   2789      -0.35     12.011
 11002         HL    427   POPC   H15A   2789       0.25      1.008
 11003         HL    427   POPC   H15B   2789       0.25      1.008
 11004         HL    427   POPC   H15C   2789       0.25      1.008
 11005       CTL2    427   POPC    C11   2790      -0.08     12.011
 11006       HAL2    427   POPC   H11A   2790       0.09      1.008
 11007       HAL2    427   POPC   H11B   2790       0.09      1.008
 11008         PL    427   POPC      P   2790        1.5     30.974
 11009        O2L    427   POPC    O13   2790      -0.78    15.9994
 11010        O2L    427   POPC    O14   2790      -0.78    15.9994
 11011       OSLP    427   POPC    O12   2790      -0.57    15.9994
 11012       OSLP    427   POPC    O11   2790      -0.57    15.9994
 11013       CTL2    427   POPC     C1   2790      -0.08     12.011
 11014       HAL2    427   POPC     HA   2790       0.09      1.008
 11015       HAL2    427   POPC     HB   2790       0.09      1.008
 11016       CTL1    427   POPC     C2   2791       0.17     12.011
 11017       HAL1    427   POPC     HS   2791       0.09      1.008
 11018        OSL    427   POPC    O21   2791      -0.49    15.9994
 11019         CL    427   POPC    C21   2791        0.9     12.011
 11020        OBL    427   POPC    O22   2791      -0.63    15.9994
 11021       CTL2    427   POPC    C22   2791      -0.22     12.011
 11022       HAL2    427   POPC    H2R   2791       0.09      1.008
 11023       HAL2    427   POPC    H2S   2791       0.09      1.008
 11024       CTL2    427   POPC     C3   2792       0.08     12.011
 11025       HAL2    427   POPC     HX   2792       0.09      1.008
 11026       HAL2    427   POPC     HY   2792       0.09      1.008
 11027        OSL    427   POPC    O31   2792      -0.49    15.9994
 11028         CL    427   POPC    C31   2792        0.9     12.011
 11029        OBL    427   POPC    O32   2792      -0.63    15.9994
 11030       CTL2    427   POPC    C32   2792      -0.22     12.011
 11031       HAL2    427   POPC    H2X   2792       0.09      1.008
 11032       HAL2    427   POPC    H2Y   2792       0.09      1.008
 11033       CTL2    427   POPC    C23   2793      -0.18     12.011
 11034       HAL2    427   POPC    H3R   2793       0.09      1.008
 11035       HAL2    427   POPC    H3S   2793       0.09      1.008
 11036       CTL2    427   POPC    C24   2794      -0.18     12.011
 11037       HAL2    427   POPC    H4R   2794       0.09      1.008
 11038       HAL2    427   POPC    H4S   2794       0.09      1.008
 11039       CTL2    427   POPC    C25   2795      -0.18     12.011
 11040       HAL2    427   POPC    H5R   2795       0.09      1.008
 11041       HAL2    427   POPC    H5S   2795       0.09      1.008
 11042       CTL2    427   POPC    C26   2796      -0.18     12.011
 11043       HAL2    427   POPC    H6R   2796       0.09      1.008
 11044       HAL2    427   POPC    H6S   2796       0.09      1.008
 11045       CTL2    427   POPC    C27   2797      -0.18     12.011
 11046       HAL2    427   POPC    H7R   2797       0.09      1.008
 11047       HAL2    427   POPC    H7S   2797       0.09      1.008
 11048       CTL2    427   POPC    C28   2798      -0.18     12.011
 11049       HAL2    427   POPC    H8R   2798       0.09      1.008
 11050       HAL2    427   POPC    H8S   2798       0.09      1.008
 11051       CEL1    427   POPC    C29   2799      -0.15     12.011
 11052       HEL1    427   POPC    H91   2799       0.15      1.008
 11053       CEL1    427   POPC   C210   2800      -0.15     12.011
 11054       HEL1    427   POPC   H101   2800       0.15      1.008
 11055       CTL2    427   POPC   C211   2801      -0.18     12.011
 11056       HAL2    427   POPC   H11R   2801       0.09      1.008
 11057       HAL2    427   POPC   H11S   2801       0.09      1.008
 11058       CTL2    427   POPC   C212   2802      -0.18     12.011
 11059       HAL2    427   POPC   H12R   2802       0.09      1.008
 11060       HAL2    427   POPC   H12S   2802       0.09      1.008
 11061       CTL2    427   POPC   C213   2803      -0.18     12.011
 11062       HAL2    427   POPC   H13R   2803       0.09      1.008
 11063       HAL2    427   POPC   H13S   2803       0.09      1.008
 11064       CTL2    427   POPC   C214   2804      -0.18     12.011
 11065       HAL2    427   POPC   H14R   2804       0.09      1.008
 11066       HAL2    427   POPC   H14S   2804       0.09      1.008
 11067       CTL2    427   POPC   C215   2805      -0.18     12.011
 11068       HAL2    427   POPC   H15R   2805       0.09      1.008
 11069       HAL2    427   POPC   H15S   2805       0.09      1.008
 11070       CTL2    427   POPC   C216   2806      -0.18     12.011
 11071       HAL2    427   POPC   H16R   2806       0.09      1.008
 11072       HAL2    427   POPC   H16S   2806       0.09      1.008
 11073       CTL2    427   POPC   C217   2807      -0.18     12.011
 11074       HAL2    427   POPC   H17R   2807       0.09      1.008
 11075       HAL2    427   POPC   H17S   2807       0.09      1.008
 11076       CTL3    427   POPC   C218   2808      -0.27     12.011
 11077       HAL3    427   POPC   H18R   2808       0.09      1.008
 11078       HAL3    427   POPC   H18S   2808       0.09      1.008
 11079       HAL3    427   POPC   H18T   2808       0.09      1.008
 11080       CTL2    427   POPC    C33   2809      -0.18     12.011
 11081       HAL2    427   POPC    H3X   2809       0.09      1.008
 11082       HAL2    427   POPC    H3Y   2809       0.09      1.008
 11083       CTL2    427   POPC    C34   2810      -0.18     12.011
 11084       HAL2    427   POPC    H4X   2810       0.09      1.008
 11085       HAL2    427   POPC    H4Y   2810       0.09      1.008
 11086       CTL2    427   POPC    C35   2811      -0.18     12.011
 11087       HAL2    427   POPC    H5X   2811       0.09      1.008
 11088       HAL2    427   POPC    H5Y   2811       0.09      1.008
 11089       CTL2    427   POPC    C36   2812      -0.18     12.011
 11090       HAL2    427   POPC    H6X   2812       0.09      1.008
 11091       HAL2    427   POPC    H6Y   2812       0.09      1.008
 11092       CTL2    427   POPC    C37   2813      -0.18     12.011
 11093       HAL2    427   POPC    H7X   2813       0.09      1.008
 11094       HAL2    427   POPC    H7Y   2813       0.09      1.008
 11095       CTL2    427   POPC    C38   2814      -0.18     12.011
 11096       HAL2    427   POPC    H8X   2814       0.09      1.008
 11097       HAL2    427   POPC    H8Y   2814       0.09      1.008
 11098       CTL2    427   POPC    C39   2815      -0.18     12.011
 11099       HAL2    427   POPC    H9X   2815       0.09      1.008
 11100       HAL2    427   POPC    H9Y   2815       0.09      1.008
 11101       CTL2    427   POPC   C310   2816      -0.18     12.011
 11102       HAL2    427   POPC   H10X   2816       0.09      1.008
 11103       HAL2    427   POPC   H10Y   2816       0.09      1.008
 11104       CTL2    427   POPC   C311   2817      -0.18     12.011
 11105       HAL2    427   POPC   H11X   2817       0.09      1.008
 11106       HAL2    427   POPC   H11Y   2817       0.09      1.008
 11107       CTL2    427   POPC   C312   2818      -0.18     12.011
 11108       HAL2    427   POPC   H12X   2818       0.09      1.008
 11109       HAL2    427   POPC   H12Y   2818       0.09      1.008
 11110       CTL2    427   POPC   C313   2819      -0.18     12.011
 11111       HAL2    427   POPC   H13X   2819       0.09      1.008
 11112       HAL2    427   POPC   H13Y   2819       0.09      1.008
 11113       CTL2    427   POPC   C314   2820      -0.18     12.011
 11114       HAL2    427   POPC   H14X   2820       0.09      1.008
 11115       HAL2    427   POPC   H14Y   2820       0.09      1.008
 11116       CTL2    427   POPC   C315   2821      -0.18     12.011
 11117       HAL2    427   POPC   H15X   2821       0.09      1.008
 11118       HAL2    427   POPC   H15Y   2821       0.09      1.008
 11119       CTL3    427   POPC   C316   2822      -0.27     12.011
 11120       HAL3    427   POPC   H16X   2822       0.09      1.008
 11121       HAL3    427   POPC   H16Y   2822       0.09      1.008
 11122       HAL3    427   POPC   H16Z   2822       0.09      1.008   ; qtot 0
; residue 428 POPC rtp POPC q  0.0
 11123        NTL    428   POPC      N   2823       -0.6     14.007
 11124       CTL2    428   POPC    C12   2823       -0.1     12.011
 11125         HL    428   POPC   H12A   2823       0.25      1.008
 11126         HL    428   POPC   H12B   2823       0.25      1.008
 11127       CTL5    428   POPC    C13   2823      -0.35     12.011
 11128         HL    428   POPC   H13A   2823       0.25      1.008
 11129         HL    428   POPC   H13B   2823       0.25      1.008
 11130         HL    428   POPC   H13C   2823       0.25      1.008
 11131       CTL5    428   POPC    C14   2823      -0.35     12.011
 11132         HL    428   POPC   H14A   2823       0.25      1.008
 11133         HL    428   POPC   H14B   2823       0.25      1.008
 11134         HL    428   POPC   H14C   2823       0.25      1.008
 11135       CTL5    428   POPC    C15   2823      -0.35     12.011
 11136         HL    428   POPC   H15A   2823       0.25      1.008
 11137         HL    428   POPC   H15B   2823       0.25      1.008
 11138         HL    428   POPC   H15C   2823       0.25      1.008
 11139       CTL2    428   POPC    C11   2824      -0.08     12.011
 11140       HAL2    428   POPC   H11A   2824       0.09      1.008
 11141       HAL2    428   POPC   H11B   2824       0.09      1.008
 11142         PL    428   POPC      P   2824        1.5     30.974
 11143        O2L    428   POPC    O13   2824      -0.78    15.9994
 11144        O2L    428   POPC    O14   2824      -0.78    15.9994
 11145       OSLP    428   POPC    O12   2824      -0.57    15.9994
 11146       OSLP    428   POPC    O11   2824      -0.57    15.9994
 11147       CTL2    428   POPC     C1   2824      -0.08     12.011
 11148       HAL2    428   POPC     HA   2824       0.09      1.008
 11149       HAL2    428   POPC     HB   2824       0.09      1.008
 11150       CTL1    428   POPC     C2   2825       0.17     12.011
 11151       HAL1    428   POPC     HS   2825       0.09      1.008
 11152        OSL    428   POPC    O21   2825      -0.49    15.9994
 11153         CL    428   POPC    C21   2825        0.9     12.011
 11154        OBL    428   POPC    O22   2825      -0.63    15.9994
 11155       CTL2    428   POPC    C22   2825      -0.22     12.011
 11156       HAL2    428   POPC    H2R   2825       0.09      1.008
 11157       HAL2    428   POPC    H2S   2825       0.09      1.008
 11158       CTL2    428   POPC     C3   2826       0.08     12.011
 11159       HAL2    428   POPC     HX   2826       0.09      1.008
 11160       HAL2    428   POPC     HY   2826       0.09      1.008
 11161        OSL    428   POPC    O31   2826      -0.49    15.9994
 11162         CL    428   POPC    C31   2826        0.9     12.011
 11163        OBL    428   POPC    O32   2826      -0.63    15.9994
 11164       CTL2    428   POPC    C32   2826      -0.22     12.011
 11165       HAL2    428   POPC    H2X   2826       0.09      1.008
 11166       HAL2    428   POPC    H2Y   2826       0.09      1.008
 11167       CTL2    428   POPC    C23   2827      -0.18     12.011
 11168       HAL2    428   POPC    H3R   2827       0.09      1.008
 11169       HAL2    428   POPC    H3S   2827       0.09      1.008
 11170       CTL2    428   POPC    C24   2828      -0.18     12.011
 11171       HAL2    428   POPC    H4R   2828       0.09      1.008
 11172       HAL2    428   POPC    H4S   2828       0.09      1.008
 11173       CTL2    428   POPC    C25   2829      -0.18     12.011
 11174       HAL2    428   POPC    H5R   2829       0.09      1.008
 11175       HAL2    428   POPC    H5S   2829       0.09      1.008
 11176       CTL2    428   POPC    C26   2830      -0.18     12.011
 11177       HAL2    428   POPC    H6R   2830       0.09      1.008
 11178       HAL2    428   POPC    H6S   2830       0.09      1.008
 11179       CTL2    428   POPC    C27   2831      -0.18     12.011
 11180       HAL2    428   POPC    H7R   2831       0.09      1.008
 11181       HAL2    428   POPC    H7S   2831       0.09      1.008
 11182       CTL2    428   POPC    C28   2832      -0.18     12.011
 11183       HAL2    428   POPC    H8R   2832       0.09      1.008
 11184       HAL2    428   POPC    H8S   2832       0.09      1.008
 11185       CEL1    428   POPC    C29   2833      -0.15     12.011
 11186       HEL1    428   POPC    H91   2833       0.15      1.008
 11187       CEL1    428   POPC   C210   2834      -0.15     12.011
 11188       HEL1    428   POPC   H101   2834       0.15      1.008
 11189       CTL2    428   POPC   C211   2835      -0.18     12.011
 11190       HAL2    428   POPC   H11R   2835       0.09      1.008
 11191       HAL2    428   POPC   H11S   2835       0.09      1.008
 11192       CTL2    428   POPC   C212   2836      -0.18     12.011
 11193       HAL2    428   POPC   H12R   2836       0.09      1.008
 11194       HAL2    428   POPC   H12S   2836       0.09      1.008
 11195       CTL2    428   POPC   C213   2837      -0.18     12.011
 11196       HAL2    428   POPC   H13R   2837       0.09      1.008
 11197       HAL2    428   POPC   H13S   2837       0.09      1.008
 11198       CTL2    428   POPC   C214   2838      -0.18     12.011
 11199       HAL2    428   POPC   H14R   2838       0.09      1.008
 11200       HAL2    428   POPC   H14S   2838       0.09      1.008
 11201       CTL2    428   POPC   C215   2839      -0.18     12.011
 11202       HAL2    428   POPC   H15R   2839       0.09      1.008
 11203       HAL2    428   POPC   H15S   2839       0.09      1.008
 11204       CTL2    428   POPC   C216   2840      -0.18     12.011
 11205       HAL2    428   POPC   H16R   2840       0.09      1.008
 11206       HAL2    428   POPC   H16S   2840       0.09      1.008
 11207       CTL2    428   POPC   C217   2841      -0.18     12.011
 11208       HAL2    428   POPC   H17R   2841       0.09      1.008
 11209       HAL2    428   POPC   H17S   2841       0.09      1.008
 11210       CTL3    428   POPC   C218   2842      -0.27     12.011
 11211       HAL3    428   POPC   H18R   2842       0.09      1.008
 11212       HAL3    428   POPC   H18S   2842       0.09      1.008
 11213       HAL3    428   POPC   H18T   2842       0.09      1.008
 11214       CTL2    428   POPC    C33   2843      -0.18     12.011
 11215       HAL2    428   POPC    H3X   2843       0.09      1.008
 11216       HAL2    428   POPC    H3Y   2843       0.09      1.008
 11217       CTL2    428   POPC    C34   2844      -0.18     12.011
 11218       HAL2    428   POPC    H4X   2844       0.09      1.008
 11219       HAL2    428   POPC    H4Y   2844       0.09      1.008
 11220       CTL2    428   POPC    C35   2845      -0.18     12.011
 11221       HAL2    428   POPC    H5X   2845       0.09      1.008
 11222       HAL2    428   POPC    H5Y   2845       0.09      1.008
 11223       CTL2    428   POPC    C36   2846      -0.18     12.011
 11224       HAL2    428   POPC    H6X   2846       0.09      1.008
 11225       HAL2    428   POPC    H6Y   2846       0.09      1.008
 11226       CTL2    428   POPC    C37   2847      -0.18     12.011
 11227       HAL2    428   POPC    H7X   2847       0.09      1.008
 11228       HAL2    428   POPC    H7Y   2847       0.09      1.008
 11229       CTL2    428   POPC    C38   2848      -0.18     12.011
 11230       HAL2    428   POPC    H8X   2848       0.09      1.008
 11231       HAL2    428   POPC    H8Y   2848       0.09      1.008
 11232       CTL2    428   POPC    C39   2849      -0.18     12.011
 11233       HAL2    428   POPC    H9X   2849       0.09      1.008
 11234       HAL2    428   POPC    H9Y   2849       0.09      1.008
 11235       CTL2    428   POPC   C310   2850      -0.18     12.011
 11236       HAL2    428   POPC   H10X   2850       0.09      1.008
 11237       HAL2    428   POPC   H10Y   2850       0.09      1.008
 11238       CTL2    428   POPC   C311   2851      -0.18     12.011
 11239       HAL2    428   POPC   H11X   2851       0.09      1.008
 11240       HAL2    428   POPC   H11Y   2851       0.09      1.008
 11241       CTL2    428   POPC   C312   2852      -0.18     12.011
 11242       HAL2    428   POPC   H12X   2852       0.09      1.008
 11243       HAL2    428   POPC   H12Y   2852       0.09      1.008
 11244       CTL2    428   POPC   C313   2853      -0.18     12.011
 11245       HAL2    428   POPC   H13X   2853       0.09      1.008
 11246       HAL2    428   POPC   H13Y   2853       0.09      1.008
 11247       CTL2    428   POPC   C314   2854      -0.18     12.011
 11248       HAL2    428   POPC   H14X   2854       0.09      1.008
 11249       HAL2    428   POPC   H14Y   2854       0.09      1.008
 11250       CTL2    428   POPC   C315   2855      -0.18     12.011
 11251       HAL2    428   POPC   H15X   2855       0.09      1.008
 11252       HAL2    428   POPC   H15Y   2855       0.09      1.008
 11253       CTL3    428   POPC   C316   2856      -0.27     12.011
 11254       HAL3    428   POPC   H16X   2856       0.09      1.008
 11255       HAL3    428   POPC   H16Y   2856       0.09      1.008
 11256       HAL3    428   POPC   H16Z   2856       0.09      1.008   ; qtot 0
; residue 429 POPC rtp POPC q  0.0
 11257        NTL    429   POPC      N   2857       -0.6     14.007
 11258       CTL2    429   POPC    C12   2857       -0.1     12.011
 11259         HL    429   POPC   H12A   2857       0.25      1.008
 11260         HL    429   POPC   H12B   2857       0.25      1.008
 11261       CTL5    429   POPC    C13   2857      -0.35     12.011
 11262         HL    429   POPC   H13A   2857       0.25      1.008
 11263         HL    429   POPC   H13B   2857       0.25      1.008
 11264         HL    429   POPC   H13C   2857       0.25      1.008
 11265       CTL5    429   POPC    C14   2857      -0.35     12.011
 11266         HL    429   POPC   H14A   2857       0.25      1.008
 11267         HL    429   POPC   H14B   2857       0.25      1.008
 11268         HL    429   POPC   H14C   2857       0.25      1.008
 11269       CTL5    429   POPC    C15   2857      -0.35     12.011
 11270         HL    429   POPC   H15A   2857       0.25      1.008
 11271         HL    429   POPC   H15B   2857       0.25      1.008
 11272         HL    429   POPC   H15C   2857       0.25      1.008
 11273       CTL2    429   POPC    C11   2858      -0.08     12.011
 11274       HAL2    429   POPC   H11A   2858       0.09      1.008
 11275       HAL2    429   POPC   H11B   2858       0.09      1.008
 11276         PL    429   POPC      P   2858        1.5     30.974
 11277        O2L    429   POPC    O13   2858      -0.78    15.9994
 11278        O2L    429   POPC    O14   2858      -0.78    15.9994
 11279       OSLP    429   POPC    O12   2858      -0.57    15.9994
 11280       OSLP    429   POPC    O11   2858      -0.57    15.9994
 11281       CTL2    429   POPC     C1   2858      -0.08     12.011
 11282       HAL2    429   POPC     HA   2858       0.09      1.008
 11283       HAL2    429   POPC     HB   2858       0.09      1.008
 11284       CTL1    429   POPC     C2   2859       0.17     12.011
 11285       HAL1    429   POPC     HS   2859       0.09      1.008
 11286        OSL    429   POPC    O21   2859      -0.49    15.9994
 11287         CL    429   POPC    C21   2859        0.9     12.011
 11288        OBL    429   POPC    O22   2859      -0.63    15.9994
 11289       CTL2    429   POPC    C22   2859      -0.22     12.011
 11290       HAL2    429   POPC    H2R   2859       0.09      1.008
 11291       HAL2    429   POPC    H2S   2859       0.09      1.008
 11292       CTL2    429   POPC     C3   2860       0.08     12.011
 11293       HAL2    429   POPC     HX   2860       0.09      1.008
 11294       HAL2    429   POPC     HY   2860       0.09      1.008
 11295        OSL    429   POPC    O31   2860      -0.49    15.9994
 11296         CL    429   POPC    C31   2860        0.9     12.011
 11297        OBL    429   POPC    O32   2860      -0.63    15.9994
 11298       CTL2    429   POPC    C32   2860      -0.22     12.011
 11299       HAL2    429   POPC    H2X   2860       0.09      1.008
 11300       HAL2    429   POPC    H2Y   2860       0.09      1.008
 11301       CTL2    429   POPC    C23   2861      -0.18     12.011
 11302       HAL2    429   POPC    H3R   2861       0.09      1.008
 11303       HAL2    429   POPC    H3S   2861       0.09      1.008
 11304       CTL2    429   POPC    C24   2862      -0.18     12.011
 11305       HAL2    429   POPC    H4R   2862       0.09      1.008
 11306       HAL2    429   POPC    H4S   2862       0.09      1.008
 11307       CTL2    429   POPC    C25   2863      -0.18     12.011
 11308       HAL2    429   POPC    H5R   2863       0.09      1.008
 11309       HAL2    429   POPC    H5S   2863       0.09      1.008
 11310       CTL2    429   POPC    C26   2864      -0.18     12.011
 11311       HAL2    429   POPC    H6R   2864       0.09      1.008
 11312       HAL2    429   POPC    H6S   2864       0.09      1.008
 11313       CTL2    429   POPC    C27   2865      -0.18     12.011
 11314       HAL2    429   POPC    H7R   2865       0.09      1.008
 11315       HAL2    429   POPC    H7S   2865       0.09      1.008
 11316       CTL2    429   POPC    C28   2866      -0.18     12.011
 11317       HAL2    429   POPC    H8R   2866       0.09      1.008
 11318       HAL2    429   POPC    H8S   2866       0.09      1.008
 11319       CEL1    429   POPC    C29   2867      -0.15     12.011
 11320       HEL1    429   POPC    H91   2867       0.15      1.008
 11321       CEL1    429   POPC   C210   2868      -0.15     12.011
 11322       HEL1    429   POPC   H101   2868       0.15      1.008
 11323       CTL2    429   POPC   C211   2869      -0.18     12.011
 11324       HAL2    429   POPC   H11R   2869       0.09      1.008
 11325       HAL2    429   POPC   H11S   2869       0.09      1.008
 11326       CTL2    429   POPC   C212   2870      -0.18     12.011
 11327       HAL2    429   POPC   H12R   2870       0.09      1.008
 11328       HAL2    429   POPC   H12S   2870       0.09      1.008
 11329       CTL2    429   POPC   C213   2871      -0.18     12.011
 11330       HAL2    429   POPC   H13R   2871       0.09      1.008
 11331       HAL2    429   POPC   H13S   2871       0.09      1.008
 11332       CTL2    429   POPC   C214   2872      -0.18     12.011
 11333       HAL2    429   POPC   H14R   2872       0.09      1.008
 11334       HAL2    429   POPC   H14S   2872       0.09      1.008
 11335       CTL2    429   POPC   C215   2873      -0.18     12.011
 11336       HAL2    429   POPC   H15R   2873       0.09      1.008
 11337       HAL2    429   POPC   H15S   2873       0.09      1.008
 11338       CTL2    429   POPC   C216   2874      -0.18     12.011
 11339       HAL2    429   POPC   H16R   2874       0.09      1.008
 11340       HAL2    429   POPC   H16S   2874       0.09      1.008
 11341       CTL2    429   POPC   C217   2875      -0.18     12.011
 11342       HAL2    429   POPC   H17R   2875       0.09      1.008
 11343       HAL2    429   POPC   H17S   2875       0.09      1.008
 11344       CTL3    429   POPC   C218   2876      -0.27     12.011
 11345       HAL3    429   POPC   H18R   2876       0.09      1.008
 11346       HAL3    429   POPC   H18S   2876       0.09      1.008
 11347       HAL3    429   POPC   H18T   2876       0.09      1.008
 11348       CTL2    429   POPC    C33   2877      -0.18     12.011
 11349       HAL2    429   POPC    H3X   2877       0.09      1.008
 11350       HAL2    429   POPC    H3Y   2877       0.09      1.008
 11351       CTL2    429   POPC    C34   2878      -0.18     12.011
 11352       HAL2    429   POPC    H4X   2878       0.09      1.008
 11353       HAL2    429   POPC    H4Y   2878       0.09      1.008
 11354       CTL2    429   POPC    C35   2879      -0.18     12.011
 11355       HAL2    429   POPC    H5X   2879       0.09      1.008
 11356       HAL2    429   POPC    H5Y   2879       0.09      1.008
 11357       CTL2    429   POPC    C36   2880      -0.18     12.011
 11358       HAL2    429   POPC    H6X   2880       0.09      1.008
 11359       HAL2    429   POPC    H6Y   2880       0.09      1.008
 11360       CTL2    429   POPC    C37   2881      -0.18     12.011
 11361       HAL2    429   POPC    H7X   2881       0.09      1.008
 11362       HAL2    429   POPC    H7Y   2881       0.09      1.008
 11363       CTL2    429   POPC    C38   2882      -0.18     12.011
 11364       HAL2    429   POPC    H8X   2882       0.09      1.008
 11365       HAL2    429   POPC    H8Y   2882       0.09      1.008
 11366       CTL2    429   POPC    C39   2883      -0.18     12.011
 11367       HAL2    429   POPC    H9X   2883       0.09      1.008
 11368       HAL2    429   POPC    H9Y   2883       0.09      1.008
 11369       CTL2    429   POPC   C310   2884      -0.18     12.011
 11370       HAL2    429   POPC   H10X   2884       0.09      1.008
 11371       HAL2    429   POPC   H10Y   2884       0.09      1.008
 11372       CTL2    429   POPC   C311   2885      -0.18     12.011
 11373       HAL2    429   POPC   H11X   2885       0.09      1.008
 11374       HAL2    429   POPC   H11Y   2885       0.09      1.008
 11375       CTL2    429   POPC   C312   2886      -0.18     12.011
 11376       HAL2    429   POPC   H12X   2886       0.09      1.008
 11377       HAL2    429   POPC   H12Y   2886       0.09      1.008
 11378       CTL2    429   POPC   C313   2887      -0.18     12.011
 11379       HAL2    429   POPC   H13X   2887       0.09      1.008
 11380       HAL2    429   POPC   H13Y   2887       0.09      1.008
 11381       CTL2    429   POPC   C314   2888      -0.18     12.011
 11382       HAL2    429   POPC   H14X   2888       0.09      1.008
 11383       HAL2    429   POPC   H14Y   2888       0.09      1.008
 11384       CTL2    429   POPC   C315   2889      -0.18     12.011
 11385       HAL2    429   POPC   H15X   2889       0.09      1.008
 11386       HAL2    429   POPC   H15Y   2889       0.09      1.008
 11387       CTL3    429   POPC   C316   2890      -0.27     12.011
 11388       HAL3    429   POPC   H16X   2890       0.09      1.008
 11389       HAL3    429   POPC   H16Y   2890       0.09      1.008
 11390       HAL3    429   POPC   H16Z   2890       0.09      1.008   ; qtot 0
; residue 430 POPC rtp POPC q  0.0
 11391        NTL    430   POPC      N   2891       -0.6     14.007
 11392       CTL2    430   POPC    C12   2891       -0.1     12.011
 11393         HL    430   POPC   H12A   2891       0.25      1.008
 11394         HL    430   POPC   H12B   2891       0.25      1.008
 11395       CTL5    430   POPC    C13   2891      -0.35     12.011
 11396         HL    430   POPC   H13A   2891       0.25      1.008
 11397         HL    430   POPC   H13B   2891       0.25      1.008
 11398         HL    430   POPC   H13C   2891       0.25      1.008
 11399       CTL5    430   POPC    C14   2891      -0.35     12.011
 11400         HL    430   POPC   H14A   2891       0.25      1.008
 11401         HL    430   POPC   H14B   2891       0.25      1.008
 11402         HL    430   POPC   H14C   2891       0.25      1.008
 11403       CTL5    430   POPC    C15   2891      -0.35     12.011
 11404         HL    430   POPC   H15A   2891       0.25      1.008
 11405         HL    430   POPC   H15B   2891       0.25      1.008
 11406         HL    430   POPC   H15C   2891       0.25      1.008
 11407       CTL2    430   POPC    C11   2892      -0.08     12.011
 11408       HAL2    430   POPC   H11A   2892       0.09      1.008
 11409       HAL2    430   POPC   H11B   2892       0.09      1.008
 11410         PL    430   POPC      P   2892        1.5     30.974
 11411        O2L    430   POPC    O13   2892      -0.78    15.9994
 11412        O2L    430   POPC    O14   2892      -0.78    15.9994
 11413       OSLP    430   POPC    O12   2892      -0.57    15.9994
 11414       OSLP    430   POPC    O11   2892      -0.57    15.9994
 11415       CTL2    430   POPC     C1   2892      -0.08     12.011
 11416       HAL2    430   POPC     HA   2892       0.09      1.008
 11417       HAL2    430   POPC     HB   2892       0.09      1.008
 11418       CTL1    430   POPC     C2   2893       0.17     12.011
 11419       HAL1    430   POPC     HS   2893       0.09      1.008
 11420        OSL    430   POPC    O21   2893      -0.49    15.9994
 11421         CL    430   POPC    C21   2893        0.9     12.011
 11422        OBL    430   POPC    O22   2893      -0.63    15.9994
 11423       CTL2    430   POPC    C22   2893      -0.22     12.011
 11424       HAL2    430   POPC    H2R   2893       0.09      1.008
 11425       HAL2    430   POPC    H2S   2893       0.09      1.008
 11426       CTL2    430   POPC     C3   2894       0.08     12.011
 11427       HAL2    430   POPC     HX   2894       0.09      1.008
 11428       HAL2    430   POPC     HY   2894       0.09      1.008
 11429        OSL    430   POPC    O31   2894      -0.49    15.9994
 11430         CL    430   POPC    C31   2894        0.9     12.011
 11431        OBL    430   POPC    O32   2894      -0.63    15.9994
 11432       CTL2    430   POPC    C32   2894      -0.22     12.011
 11433       HAL2    430   POPC    H2X   2894       0.09      1.008
 11434       HAL2    430   POPC    H2Y   2894       0.09      1.008
 11435       CTL2    430   POPC    C23   2895      -0.18     12.011
 11436       HAL2    430   POPC    H3R   2895       0.09      1.008
 11437       HAL2    430   POPC    H3S   2895       0.09      1.008
 11438       CTL2    430   POPC    C24   2896      -0.18     12.011
 11439       HAL2    430   POPC    H4R   2896       0.09      1.008
 11440       HAL2    430   POPC    H4S   2896       0.09      1.008
 11441       CTL2    430   POPC    C25   2897      -0.18     12.011
 11442       HAL2    430   POPC    H5R   2897       0.09      1.008
 11443       HAL2    430   POPC    H5S   2897       0.09      1.008
 11444       CTL2    430   POPC    C26   2898      -0.18     12.011
 11445       HAL2    430   POPC    H6R   2898       0.09      1.008
 11446       HAL2    430   POPC    H6S   2898       0.09      1.008
 11447       CTL2    430   POPC    C27   2899      -0.18     12.011
 11448       HAL2    430   POPC    H7R   2899       0.09      1.008
 11449       HAL2    430   POPC    H7S   2899       0.09      1.008
 11450       CTL2    430   POPC    C28   2900      -0.18     12.011
 11451       HAL2    430   POPC    H8R   2900       0.09      1.008
 11452       HAL2    430   POPC    H8S   2900       0.09      1.008
 11453       CEL1    430   POPC    C29   2901      -0.15     12.011
 11454       HEL1    430   POPC    H91   2901       0.15      1.008
 11455       CEL1    430   POPC   C210   2902      -0.15     12.011
 11456       HEL1    430   POPC   H101   2902       0.15      1.008
 11457       CTL2    430   POPC   C211   2903      -0.18     12.011
 11458       HAL2    430   POPC   H11R   2903       0.09      1.008
 11459       HAL2    430   POPC   H11S   2903       0.09      1.008
 11460       CTL2    430   POPC   C212   2904      -0.18     12.011
 11461       HAL2    430   POPC   H12R   2904       0.09      1.008
 11462       HAL2    430   POPC   H12S   2904       0.09      1.008
 11463       CTL2    430   POPC   C213   2905      -0.18     12.011
 11464       HAL2    430   POPC   H13R   2905       0.09      1.008
 11465       HAL2    430   POPC   H13S   2905       0.09      1.008
 11466       CTL2    430   POPC   C214   2906      -0.18     12.011
 11467       HAL2    430   POPC   H14R   2906       0.09      1.008
 11468       HAL2    430   POPC   H14S   2906       0.09      1.008
 11469       CTL2    430   POPC   C215   2907      -0.18     12.011
 11470       HAL2    430   POPC   H15R   2907       0.09      1.008
 11471       HAL2    430   POPC   H15S   2907       0.09      1.008
 11472       CTL2    430   POPC   C216   2908      -0.18     12.011
 11473       HAL2    430   POPC   H16R   2908       0.09      1.008
 11474       HAL2    430   POPC   H16S   2908       0.09      1.008
 11475       CTL2    430   POPC   C217   2909      -0.18     12.011
 11476       HAL2    430   POPC   H17R   2909       0.09      1.008
 11477       HAL2    430   POPC   H17S   2909       0.09      1.008
 11478       CTL3    430   POPC   C218   2910      -0.27     12.011
 11479       HAL3    430   POPC   H18R   2910       0.09      1.008
 11480       HAL3    430   POPC   H18S   2910       0.09      1.008
 11481       HAL3    430   POPC   H18T   2910       0.09      1.008
 11482       CTL2    430   POPC    C33   2911      -0.18     12.011
 11483       HAL2    430   POPC    H3X   2911       0.09      1.008
 11484       HAL2    430   POPC    H3Y   2911       0.09      1.008
 11485       CTL2    430   POPC    C34   2912      -0.18     12.011
 11486       HAL2    430   POPC    H4X   2912       0.09      1.008
 11487       HAL2    430   POPC    H4Y   2912       0.09      1.008
 11488       CTL2    430   POPC    C35   2913      -0.18     12.011
 11489       HAL2    430   POPC    H5X   2913       0.09      1.008
 11490       HAL2    430   POPC    H5Y   2913       0.09      1.008
 11491       CTL2    430   POPC    C36   2914      -0.18     12.011
 11492       HAL2    430   POPC    H6X   2914       0.09      1.008
 11493       HAL2    430   POPC    H6Y   2914       0.09      1.008
 11494       CTL2    430   POPC    C37   2915      -0.18     12.011
 11495       HAL2    430   POPC    H7X   2915       0.09      1.008
 11496       HAL2    430   POPC    H7Y   2915       0.09      1.008
 11497       CTL2    430   POPC    C38   2916      -0.18     12.011
 11498       HAL2    430   POPC    H8X   2916       0.09      1.008
 11499       HAL2    430   POPC    H8Y   2916       0.09      1.008
 11500       CTL2    430   POPC    C39   2917      -0.18     12.011
 11501       HAL2    430   POPC    H9X   2917       0.09      1.008
 11502       HAL2    430   POPC    H9Y   2917       0.09      1.008
 11503       CTL2    430   POPC   C310   2918      -0.18     12.011
 11504       HAL2    430   POPC   H10X   2918       0.09      1.008
 11505       HAL2    430   POPC   H10Y   2918       0.09      1.008
 11506       CTL2    430   POPC   C311   2919      -0.18     12.011
 11507       HAL2    430   POPC   H11X   2919       0.09      1.008
 11508       HAL2    430   POPC   H11Y   2919       0.09      1.008
 11509       CTL2    430   POPC   C312   2920      -0.18     12.011
 11510       HAL2    430   POPC   H12X   2920       0.09      1.008
 11511       HAL2    430   POPC   H12Y   2920       0.09      1.008
 11512       CTL2    430   POPC   C313   2921      -0.18     12.011
 11513       HAL2    430   POPC   H13X   2921       0.09      1.008
 11514       HAL2    430   POPC   H13Y   2921       0.09      1.008
 11515       CTL2    430   POPC   C314   2922      -0.18     12.011
 11516       HAL2    430   POPC   H14X   2922       0.09      1.008
 11517       HAL2    430   POPC   H14Y   2922       0.09      1.008
 11518       CTL2    430   POPC   C315   2923      -0.18     12.011
 11519       HAL2    430   POPC   H15X   2923       0.09      1.008
 11520       HAL2    430   POPC   H15Y   2923       0.09      1.008
 11521       CTL3    430   POPC   C316   2924      -0.27     12.011
 11522       HAL3    430   POPC   H16X   2924       0.09      1.008
 11523       HAL3    430   POPC   H16Y   2924       0.09      1.008
 11524       HAL3    430   POPC   H16Z   2924       0.09      1.008   ; qtot 0
; residue 431 POPC rtp POPC q  0.0
 11525        NTL    431   POPC      N   2925       -0.6     14.007
 11526       CTL2    431   POPC    C12   2925       -0.1     12.011
 11527         HL    431   POPC   H12A   2925       0.25      1.008
 11528         HL    431   POPC   H12B   2925       0.25      1.008
 11529       CTL5    431   POPC    C13   2925      -0.35     12.011
 11530         HL    431   POPC   H13A   2925       0.25      1.008
 11531         HL    431   POPC   H13B   2925       0.25      1.008
 11532         HL    431   POPC   H13C   2925       0.25      1.008
 11533       CTL5    431   POPC    C14   2925      -0.35     12.011
 11534         HL    431   POPC   H14A   2925       0.25      1.008
 11535         HL    431   POPC   H14B   2925       0.25      1.008
 11536         HL    431   POPC   H14C   2925       0.25      1.008
 11537       CTL5    431   POPC    C15   2925      -0.35     12.011
 11538         HL    431   POPC   H15A   2925       0.25      1.008
 11539         HL    431   POPC   H15B   2925       0.25      1.008
 11540         HL    431   POPC   H15C   2925       0.25      1.008
 11541       CTL2    431   POPC    C11   2926      -0.08     12.011
 11542       HAL2    431   POPC   H11A   2926       0.09      1.008
 11543       HAL2    431   POPC   H11B   2926       0.09      1.008
 11544         PL    431   POPC      P   2926        1.5     30.974
 11545        O2L    431   POPC    O13   2926      -0.78    15.9994
 11546        O2L    431   POPC    O14   2926      -0.78    15.9994
 11547       OSLP    431   POPC    O12   2926      -0.57    15.9994
 11548       OSLP    431   POPC    O11   2926      -0.57    15.9994
 11549       CTL2    431   POPC     C1   2926      -0.08     12.011
 11550       HAL2    431   POPC     HA   2926       0.09      1.008
 11551       HAL2    431   POPC     HB   2926       0.09      1.008
 11552       CTL1    431   POPC     C2   2927       0.17     12.011
 11553       HAL1    431   POPC     HS   2927       0.09      1.008
 11554        OSL    431   POPC    O21   2927      -0.49    15.9994
 11555         CL    431   POPC    C21   2927        0.9     12.011
 11556        OBL    431   POPC    O22   2927      -0.63    15.9994
 11557       CTL2    431   POPC    C22   2927      -0.22     12.011
 11558       HAL2    431   POPC    H2R   2927       0.09      1.008
 11559       HAL2    431   POPC    H2S   2927       0.09      1.008
 11560       CTL2    431   POPC     C3   2928       0.08     12.011
 11561       HAL2    431   POPC     HX   2928       0.09      1.008
 11562       HAL2    431   POPC     HY   2928       0.09      1.008
 11563        OSL    431   POPC    O31   2928      -0.49    15.9994
 11564         CL    431   POPC    C31   2928        0.9     12.011
 11565        OBL    431   POPC    O32   2928      -0.63    15.9994
 11566       CTL2    431   POPC    C32   2928      -0.22     12.011
 11567       HAL2    431   POPC    H2X   2928       0.09      1.008
 11568       HAL2    431   POPC    H2Y   2928       0.09      1.008
 11569       CTL2    431   POPC    C23   2929      -0.18     12.011
 11570       HAL2    431   POPC    H3R   2929       0.09      1.008
 11571       HAL2    431   POPC    H3S   2929       0.09      1.008
 11572       CTL2    431   POPC    C24   2930      -0.18     12.011
 11573       HAL2    431   POPC    H4R   2930       0.09      1.008
 11574       HAL2    431   POPC    H4S   2930       0.09      1.008
 11575       CTL2    431   POPC    C25   2931      -0.18     12.011
 11576       HAL2    431   POPC    H5R   2931       0.09      1.008
 11577       HAL2    431   POPC    H5S   2931       0.09      1.008
 11578       CTL2    431   POPC    C26   2932      -0.18     12.011
 11579       HAL2    431   POPC    H6R   2932       0.09      1.008
 11580       HAL2    431   POPC    H6S   2932       0.09      1.008
 11581       CTL2    431   POPC    C27   2933      -0.18     12.011
 11582       HAL2    431   POPC    H7R   2933       0.09      1.008
 11583       HAL2    431   POPC    H7S   2933       0.09      1.008
 11584       CTL2    431   POPC    C28   2934      -0.18     12.011
 11585       HAL2    431   POPC    H8R   2934       0.09      1.008
 11586       HAL2    431   POPC    H8S   2934       0.09      1.008
 11587       CEL1    431   POPC    C29   2935      -0.15     12.011
 11588       HEL1    431   POPC    H91   2935       0.15      1.008
 11589       CEL1    431   POPC   C210   2936      -0.15     12.011
 11590       HEL1    431   POPC   H101   2936       0.15      1.008
 11591       CTL2    431   POPC   C211   2937      -0.18     12.011
 11592       HAL2    431   POPC   H11R   2937       0.09      1.008
 11593       HAL2    431   POPC   H11S   2937       0.09      1.008
 11594       CTL2    431   POPC   C212   2938      -0.18     12.011
 11595       HAL2    431   POPC   H12R   2938       0.09      1.008
 11596       HAL2    431   POPC   H12S   2938       0.09      1.008
 11597       CTL2    431   POPC   C213   2939      -0.18     12.011
 11598       HAL2    431   POPC   H13R   2939       0.09      1.008
 11599       HAL2    431   POPC   H13S   2939       0.09      1.008
 11600       CTL2    431   POPC   C214   2940      -0.18     12.011
 11601       HAL2    431   POPC   H14R   2940       0.09      1.008
 11602       HAL2    431   POPC   H14S   2940       0.09      1.008
 11603       CTL2    431   POPC   C215   2941      -0.18     12.011
 11604       HAL2    431   POPC   H15R   2941       0.09      1.008
 11605       HAL2    431   POPC   H15S   2941       0.09      1.008
 11606       CTL2    431   POPC   C216   2942      -0.18     12.011
 11607       HAL2    431   POPC   H16R   2942       0.09      1.008
 11608       HAL2    431   POPC   H16S   2942       0.09      1.008
 11609       CTL2    431   POPC   C217   2943      -0.18     12.011
 11610       HAL2    431   POPC   H17R   2943       0.09      1.008
 11611       HAL2    431   POPC   H17S   2943       0.09      1.008
 11612       CTL3    431   POPC   C218   2944      -0.27     12.011
 11613       HAL3    431   POPC   H18R   2944       0.09      1.008
 11614       HAL3    431   POPC   H18S   2944       0.09      1.008
 11615       HAL3    431   POPC   H18T   2944       0.09      1.008
 11616       CTL2    431   POPC    C33   2945      -0.18     12.011
 11617       HAL2    431   POPC    H3X   2945       0.09      1.008
 11618       HAL2    431   POPC    H3Y   2945       0.09      1.008
 11619       CTL2    431   POPC    C34   2946      -0.18     12.011
 11620       HAL2    431   POPC    H4X   2946       0.09      1.008
 11621       HAL2    431   POPC    H4Y   2946       0.09      1.008
 11622       CTL2    431   POPC    C35   2947      -0.18     12.011
 11623       HAL2    431   POPC    H5X   2947       0.09      1.008
 11624       HAL2    431   POPC    H5Y   2947       0.09      1.008
 11625       CTL2    431   POPC    C36   2948      -0.18     12.011
 11626       HAL2    431   POPC    H6X   2948       0.09      1.008
 11627       HAL2    431   POPC    H6Y   2948       0.09      1.008
 11628       CTL2    431   POPC    C37   2949      -0.18     12.011
 11629       HAL2    431   POPC    H7X   2949       0.09      1.008
 11630       HAL2    431   POPC    H7Y   2949       0.09      1.008
 11631       CTL2    431   POPC    C38   2950      -0.18     12.011
 11632       HAL2    431   POPC    H8X   2950       0.09      1.008
 11633       HAL2    431   POPC    H8Y   2950       0.09      1.008
 11634       CTL2    431   POPC    C39   2951      -0.18     12.011
 11635       HAL2    431   POPC    H9X   2951       0.09      1.008
 11636       HAL2    431   POPC    H9Y   2951       0.09      1.008
 11637       CTL2    431   POPC   C310   2952      -0.18     12.011
 11638       HAL2    431   POPC   H10X   2952       0.09      1.008
 11639       HAL2    431   POPC   H10Y   2952       0.09      1.008
 11640       CTL2    431   POPC   C311   2953      -0.18     12.011
 11641       HAL2    431   POPC   H11X   2953       0.09      1.008
 11642       HAL2    431   POPC   H11Y   2953       0.09      1.008
 11643       CTL2    431   POPC   C312   2954      -0.18     12.011
 11644       HAL2    431   POPC   H12X   2954       0.09      1.008
 11645       HAL2    431   POPC   H12Y   2954       0.09      1.008
 11646       CTL2    431   POPC   C313   2955      -0.18     12.011
 11647       HAL2    431   POPC   H13X   2955       0.09      1.008
 11648       HAL2    431   POPC   H13Y   2955       0.09      1.008
 11649       CTL2    431   POPC   C314   2956      -0.18     12.011
 11650       HAL2    431   POPC   H14X   2956       0.09      1.008
 11651       HAL2    431   POPC   H14Y   2956       0.09      1.008
 11652       CTL2    431   POPC   C315   2957      -0.18     12.011
 11653       HAL2    431   POPC   H15X   2957       0.09      1.008
 11654       HAL2    431   POPC   H15Y   2957       0.09      1.008
 11655       CTL3    431   POPC   C316   2958      -0.27     12.011
 11656       HAL3    431   POPC   H16X   2958       0.09      1.008
 11657       HAL3    431   POPC   H16Y   2958       0.09      1.008
 11658       HAL3    431   POPC   H16Z   2958       0.09      1.008   ; qtot 0
; residue 432 POPC rtp POPC q  0.0
 11659        NTL    432   POPC      N   2959       -0.6     14.007
 11660       CTL2    432   POPC    C12   2959       -0.1     12.011
 11661         HL    432   POPC   H12A   2959       0.25      1.008
 11662         HL    432   POPC   H12B   2959       0.25      1.008
 11663       CTL5    432   POPC    C13   2959      -0.35     12.011
 11664         HL    432   POPC   H13A   2959       0.25      1.008
 11665         HL    432   POPC   H13B   2959       0.25      1.008
 11666         HL    432   POPC   H13C   2959       0.25      1.008
 11667       CTL5    432   POPC    C14   2959      -0.35     12.011
 11668         HL    432   POPC   H14A   2959       0.25      1.008
 11669         HL    432   POPC   H14B   2959       0.25      1.008
 11670         HL    432   POPC   H14C   2959       0.25      1.008
 11671       CTL5    432   POPC    C15   2959      -0.35     12.011
 11672         HL    432   POPC   H15A   2959       0.25      1.008
 11673         HL    432   POPC   H15B   2959       0.25      1.008
 11674         HL    432   POPC   H15C   2959       0.25      1.008
 11675       CTL2    432   POPC    C11   2960      -0.08     12.011
 11676       HAL2    432   POPC   H11A   2960       0.09      1.008
 11677       HAL2    432   POPC   H11B   2960       0.09      1.008
 11678         PL    432   POPC      P   2960        1.5     30.974
 11679        O2L    432   POPC    O13   2960      -0.78    15.9994
 11680        O2L    432   POPC    O14   2960      -0.78    15.9994
 11681       OSLP    432   POPC    O12   2960      -0.57    15.9994
 11682       OSLP    432   POPC    O11   2960      -0.57    15.9994
 11683       CTL2    432   POPC     C1   2960      -0.08     12.011
 11684       HAL2    432   POPC     HA   2960       0.09      1.008
 11685       HAL2    432   POPC     HB   2960       0.09      1.008
 11686       CTL1    432   POPC     C2   2961       0.17     12.011
 11687       HAL1    432   POPC     HS   2961       0.09      1.008
 11688        OSL    432   POPC    O21   2961      -0.49    15.9994
 11689         CL    432   POPC    C21   2961        0.9     12.011
 11690        OBL    432   POPC    O22   2961      -0.63    15.9994
 11691       CTL2    432   POPC    C22   2961      -0.22     12.011
 11692       HAL2    432   POPC    H2R   2961       0.09      1.008
 11693       HAL2    432   POPC    H2S   2961       0.09      1.008
 11694       CTL2    432   POPC     C3   2962       0.08     12.011
 11695       HAL2    432   POPC     HX   2962       0.09      1.008
 11696       HAL2    432   POPC     HY   2962       0.09      1.008
 11697        OSL    432   POPC    O31   2962      -0.49    15.9994
 11698         CL    432   POPC    C31   2962        0.9     12.011
 11699        OBL    432   POPC    O32   2962      -0.63    15.9994
 11700       CTL2    432   POPC    C32   2962      -0.22     12.011
 11701       HAL2    432   POPC    H2X   2962       0.09      1.008
 11702       HAL2    432   POPC    H2Y   2962       0.09      1.008
 11703       CTL2    432   POPC    C23   2963      -0.18     12.011
 11704       HAL2    432   POPC    H3R   2963       0.09      1.008
 11705       HAL2    432   POPC    H3S   2963       0.09      1.008
 11706       CTL2    432   POPC    C24   2964      -0.18     12.011
 11707       HAL2    432   POPC    H4R   2964       0.09      1.008
 11708       HAL2    432   POPC    H4S   2964       0.09      1.008
 11709       CTL2    432   POPC    C25   2965      -0.18     12.011
 11710       HAL2    432   POPC    H5R   2965       0.09      1.008
 11711       HAL2    432   POPC    H5S   2965       0.09      1.008
 11712       CTL2    432   POPC    C26   2966      -0.18     12.011
 11713       HAL2    432   POPC    H6R   2966       0.09      1.008
 11714       HAL2    432   POPC    H6S   2966       0.09      1.008
 11715       CTL2    432   POPC    C27   2967      -0.18     12.011
 11716       HAL2    432   POPC    H7R   2967       0.09      1.008
 11717       HAL2    432   POPC    H7S   2967       0.09      1.008
 11718       CTL2    432   POPC    C28   2968      -0.18     12.011
 11719       HAL2    432   POPC    H8R   2968       0.09      1.008
 11720       HAL2    432   POPC    H8S   2968       0.09      1.008
 11721       CEL1    432   POPC    C29   2969      -0.15     12.011
 11722       HEL1    432   POPC    H91   2969       0.15      1.008
 11723       CEL1    432   POPC   C210   2970      -0.15     12.011
 11724       HEL1    432   POPC   H101   2970       0.15      1.008
 11725       CTL2    432   POPC   C211   2971      -0.18     12.011
 11726       HAL2    432   POPC   H11R   2971       0.09      1.008
 11727       HAL2    432   POPC   H11S   2971       0.09      1.008
 11728       CTL2    432   POPC   C212   2972      -0.18     12.011
 11729       HAL2    432   POPC   H12R   2972       0.09      1.008
 11730       HAL2    432   POPC   H12S   2972       0.09      1.008
 11731       CTL2    432   POPC   C213   2973      -0.18     12.011
 11732       HAL2    432   POPC   H13R   2973       0.09      1.008
 11733       HAL2    432   POPC   H13S   2973       0.09      1.008
 11734       CTL2    432   POPC   C214   2974      -0.18     12.011
 11735       HAL2    432   POPC   H14R   2974       0.09      1.008
 11736       HAL2    432   POPC   H14S   2974       0.09      1.008
 11737       CTL2    432   POPC   C215   2975      -0.18     12.011
 11738       HAL2    432   POPC   H15R   2975       0.09      1.008
 11739       HAL2    432   POPC   H15S   2975       0.09      1.008
 11740       CTL2    432   POPC   C216   2976      -0.18     12.011
 11741       HAL2    432   POPC   H16R   2976       0.09      1.008
 11742       HAL2    432   POPC   H16S   2976       0.09      1.008
 11743       CTL2    432   POPC   C217   2977      -0.18     12.011
 11744       HAL2    432   POPC   H17R   2977       0.09      1.008
 11745       HAL2    432   POPC   H17S   2977       0.09      1.008
 11746       CTL3    432   POPC   C218   2978      -0.27     12.011
 11747       HAL3    432   POPC   H18R   2978       0.09      1.008
 11748       HAL3    432   POPC   H18S   2978       0.09      1.008
 11749       HAL3    432   POPC   H18T   2978       0.09      1.008
 11750       CTL2    432   POPC    C33   2979      -0.18     12.011
 11751       HAL2    432   POPC    H3X   2979       0.09      1.008
 11752       HAL2    432   POPC    H3Y   2979       0.09      1.008
 11753       CTL2    432   POPC    C34   2980      -0.18     12.011
 11754       HAL2    432   POPC    H4X   2980       0.09      1.008
 11755       HAL2    432   POPC    H4Y   2980       0.09      1.008
 11756       CTL2    432   POPC    C35   2981      -0.18     12.011
 11757       HAL2    432   POPC    H5X   2981       0.09      1.008
 11758       HAL2    432   POPC    H5Y   2981       0.09      1.008
 11759       CTL2    432   POPC    C36   2982      -0.18     12.011
 11760       HAL2    432   POPC    H6X   2982       0.09      1.008
 11761       HAL2    432   POPC    H6Y   2982       0.09      1.008
 11762       CTL2    432   POPC    C37   2983      -0.18     12.011
 11763       HAL2    432   POPC    H7X   2983       0.09      1.008
 11764       HAL2    432   POPC    H7Y   2983       0.09      1.008
 11765       CTL2    432   POPC    C38   2984      -0.18     12.011
 11766       HAL2    432   POPC    H8X   2984       0.09      1.008
 11767       HAL2    432   POPC    H8Y   2984       0.09      1.008
 11768       CTL2    432   POPC    C39   2985      -0.18     12.011
 11769       HAL2    432   POPC    H9X   2985       0.09      1.008
 11770       HAL2    432   POPC    H9Y   2985       0.09      1.008
 11771       CTL2    432   POPC   C310   2986      -0.18     12.011
 11772       HAL2    432   POPC   H10X   2986       0.09      1.008
 11773       HAL2    432   POPC   H10Y   2986       0.09      1.008
 11774       CTL2    432   POPC   C311   2987      -0.18     12.011
 11775       HAL2    432   POPC   H11X   2987       0.09      1.008
 11776       HAL2    432   POPC   H11Y   2987       0.09      1.008
 11777       CTL2    432   POPC   C312   2988      -0.18     12.011
 11778       HAL2    432   POPC   H12X   2988       0.09      1.008
 11779       HAL2    432   POPC   H12Y   2988       0.09      1.008
 11780       CTL2    432   POPC   C313   2989      -0.18     12.011
 11781       HAL2    432   POPC   H13X   2989       0.09      1.008
 11782       HAL2    432   POPC   H13Y   2989       0.09      1.008
 11783       CTL2    432   POPC   C314   2990      -0.18     12.011
 11784       HAL2    432   POPC   H14X   2990       0.09      1.008
 11785       HAL2    432   POPC   H14Y   2990       0.09      1.008
 11786       CTL2    432   POPC   C315   2991      -0.18     12.011
 11787       HAL2    432   POPC   H15X   2991       0.09      1.008
 11788       HAL2    432   POPC   H15Y   2991       0.09      1.008
 11789       CTL3    432   POPC   C316   2992      -0.27     12.011
 11790       HAL3    432   POPC   H16X   2992       0.09      1.008
 11791       HAL3    432   POPC   H16Y   2992       0.09      1.008
 11792       HAL3    432   POPC   H16Z   2992       0.09      1.008   ; qtot 0
; residue 433 POPC rtp POPC q  0.0
 11793        NTL    433   POPC      N   2993       -0.6     14.007
 11794       CTL2    433   POPC    C12   2993       -0.1     12.011
 11795         HL    433   POPC   H12A   2993       0.25      1.008
 11796         HL    433   POPC   H12B   2993       0.25      1.008
 11797       CTL5    433   POPC    C13   2993      -0.35     12.011
 11798         HL    433   POPC   H13A   2993       0.25      1.008
 11799         HL    433   POPC   H13B   2993       0.25      1.008
 11800         HL    433   POPC   H13C   2993       0.25      1.008
 11801       CTL5    433   POPC    C14   2993      -0.35     12.011
 11802         HL    433   POPC   H14A   2993       0.25      1.008
 11803         HL    433   POPC   H14B   2993       0.25      1.008
 11804         HL    433   POPC   H14C   2993       0.25      1.008
 11805       CTL5    433   POPC    C15   2993      -0.35     12.011
 11806         HL    433   POPC   H15A   2993       0.25      1.008
 11807         HL    433   POPC   H15B   2993       0.25      1.008
 11808         HL    433   POPC   H15C   2993       0.25      1.008
 11809       CTL2    433   POPC    C11   2994      -0.08     12.011
 11810       HAL2    433   POPC   H11A   2994       0.09      1.008
 11811       HAL2    433   POPC   H11B   2994       0.09      1.008
 11812         PL    433   POPC      P   2994        1.5     30.974
 11813        O2L    433   POPC    O13   2994      -0.78    15.9994
 11814        O2L    433   POPC    O14   2994      -0.78    15.9994
 11815       OSLP    433   POPC    O12   2994      -0.57    15.9994
 11816       OSLP    433   POPC    O11   2994      -0.57    15.9994
 11817       CTL2    433   POPC     C1   2994      -0.08     12.011
 11818       HAL2    433   POPC     HA   2994       0.09      1.008
 11819       HAL2    433   POPC     HB   2994       0.09      1.008
 11820       CTL1    433   POPC     C2   2995       0.17     12.011
 11821       HAL1    433   POPC     HS   2995       0.09      1.008
 11822        OSL    433   POPC    O21   2995      -0.49    15.9994
 11823         CL    433   POPC    C21   2995        0.9     12.011
 11824        OBL    433   POPC    O22   2995      -0.63    15.9994
 11825       CTL2    433   POPC    C22   2995      -0.22     12.011
 11826       HAL2    433   POPC    H2R   2995       0.09      1.008
 11827       HAL2    433   POPC    H2S   2995       0.09      1.008
 11828       CTL2    433   POPC     C3   2996       0.08     12.011
 11829       HAL2    433   POPC     HX   2996       0.09      1.008
 11830       HAL2    433   POPC     HY   2996       0.09      1.008
 11831        OSL    433   POPC    O31   2996      -0.49    15.9994
 11832         CL    433   POPC    C31   2996        0.9     12.011
 11833        OBL    433   POPC    O32   2996      -0.63    15.9994
 11834       CTL2    433   POPC    C32   2996      -0.22     12.011
 11835       HAL2    433   POPC    H2X   2996       0.09      1.008
 11836       HAL2    433   POPC    H2Y   2996       0.09      1.008
 11837       CTL2    433   POPC    C23   2997      -0.18     12.011
 11838       HAL2    433   POPC    H3R   2997       0.09      1.008
 11839       HAL2    433   POPC    H3S   2997       0.09      1.008
 11840       CTL2    433   POPC    C24   2998      -0.18     12.011
 11841       HAL2    433   POPC    H4R   2998       0.09      1.008
 11842       HAL2    433   POPC    H4S   2998       0.09      1.008
 11843       CTL2    433   POPC    C25   2999      -0.18     12.011
 11844       HAL2    433   POPC    H5R   2999       0.09      1.008
 11845       HAL2    433   POPC    H5S   2999       0.09      1.008
 11846       CTL2    433   POPC    C26   3000      -0.18     12.011
 11847       HAL2    433   POPC    H6R   3000       0.09      1.008
 11848       HAL2    433   POPC    H6S   3000       0.09      1.008
 11849       CTL2    433   POPC    C27   3001      -0.18     12.011
 11850       HAL2    433   POPC    H7R   3001       0.09      1.008
 11851       HAL2    433   POPC    H7S   3001       0.09      1.008
 11852       CTL2    433   POPC    C28   3002      -0.18     12.011
 11853       HAL2    433   POPC    H8R   3002       0.09      1.008
 11854       HAL2    433   POPC    H8S   3002       0.09      1.008
 11855       CEL1    433   POPC    C29   3003      -0.15     12.011
 11856       HEL1    433   POPC    H91   3003       0.15      1.008
 11857       CEL1    433   POPC   C210   3004      -0.15     12.011
 11858       HEL1    433   POPC   H101   3004       0.15      1.008
 11859       CTL2    433   POPC   C211   3005      -0.18     12.011
 11860       HAL2    433   POPC   H11R   3005       0.09      1.008
 11861       HAL2    433   POPC   H11S   3005       0.09      1.008
 11862       CTL2    433   POPC   C212   3006      -0.18     12.011
 11863       HAL2    433   POPC   H12R   3006       0.09      1.008
 11864       HAL2    433   POPC   H12S   3006       0.09      1.008
 11865       CTL2    433   POPC   C213   3007      -0.18     12.011
 11866       HAL2    433   POPC   H13R   3007       0.09      1.008
 11867       HAL2    433   POPC   H13S   3007       0.09      1.008
 11868       CTL2    433   POPC   C214   3008      -0.18     12.011
 11869       HAL2    433   POPC   H14R   3008       0.09      1.008
 11870       HAL2    433   POPC   H14S   3008       0.09      1.008
 11871       CTL2    433   POPC   C215   3009      -0.18     12.011
 11872       HAL2    433   POPC   H15R   3009       0.09      1.008
 11873       HAL2    433   POPC   H15S   3009       0.09      1.008
 11874       CTL2    433   POPC   C216   3010      -0.18     12.011
 11875       HAL2    433   POPC   H16R   3010       0.09      1.008
 11876       HAL2    433   POPC   H16S   3010       0.09      1.008
 11877       CTL2    433   POPC   C217   3011      -0.18     12.011
 11878       HAL2    433   POPC   H17R   3011       0.09      1.008
 11879       HAL2    433   POPC   H17S   3011       0.09      1.008
 11880       CTL3    433   POPC   C218   3012      -0.27     12.011
 11881       HAL3    433   POPC   H18R   3012       0.09      1.008
 11882       HAL3    433   POPC   H18S   3012       0.09      1.008
 11883       HAL3    433   POPC   H18T   3012       0.09      1.008
 11884       CTL2    433   POPC    C33   3013      -0.18     12.011
 11885       HAL2    433   POPC    H3X   3013       0.09      1.008
 11886       HAL2    433   POPC    H3Y   3013       0.09      1.008
 11887       CTL2    433   POPC    C34   3014      -0.18     12.011
 11888       HAL2    433   POPC    H4X   3014       0.09      1.008
 11889       HAL2    433   POPC    H4Y   3014       0.09      1.008
 11890       CTL2    433   POPC    C35   3015      -0.18     12.011
 11891       HAL2    433   POPC    H5X   3015       0.09      1.008
 11892       HAL2    433   POPC    H5Y   3015       0.09      1.008
 11893       CTL2    433   POPC    C36   3016      -0.18     12.011
 11894       HAL2    433   POPC    H6X   3016       0.09      1.008
 11895       HAL2    433   POPC    H6Y   3016       0.09      1.008
 11896       CTL2    433   POPC    C37   3017      -0.18     12.011
 11897       HAL2    433   POPC    H7X   3017       0.09      1.008
 11898       HAL2    433   POPC    H7Y   3017       0.09      1.008
 11899       CTL2    433   POPC    C38   3018      -0.18     12.011
 11900       HAL2    433   POPC    H8X   3018       0.09      1.008
 11901       HAL2    433   POPC    H8Y   3018       0.09      1.008
 11902       CTL2    433   POPC    C39   3019      -0.18     12.011
 11903       HAL2    433   POPC    H9X   3019       0.09      1.008
 11904       HAL2    433   POPC    H9Y   3019       0.09      1.008
 11905       CTL2    433   POPC   C310   3020      -0.18     12.011
 11906       HAL2    433   POPC   H10X   3020       0.09      1.008
 11907       HAL2    433   POPC   H10Y   3020       0.09      1.008
 11908       CTL2    433   POPC   C311   3021      -0.18     12.011
 11909       HAL2    433   POPC   H11X   3021       0.09      1.008
 11910       HAL2    433   POPC   H11Y   3021       0.09      1.008
 11911       CTL2    433   POPC   C312   3022      -0.18     12.011
 11912       HAL2    433   POPC   H12X   3022       0.09      1.008
 11913       HAL2    433   POPC   H12Y   3022       0.09      1.008
 11914       CTL2    433   POPC   C313   3023      -0.18     12.011
 11915       HAL2    433   POPC   H13X   3023       0.09      1.008
 11916       HAL2    433   POPC   H13Y   3023       0.09      1.008
 11917       CTL2    433   POPC   C314   3024      -0.18     12.011
 11918       HAL2    433   POPC   H14X   3024       0.09      1.008
 11919       HAL2    433   POPC   H14Y   3024       0.09      1.008
 11920       CTL2    433   POPC   C315   3025      -0.18     12.011
 11921       HAL2    433   POPC   H15X   3025       0.09      1.008
 11922       HAL2    433   POPC   H15Y   3025       0.09      1.008
 11923       CTL3    433   POPC   C316   3026      -0.27     12.011
 11924       HAL3    433   POPC   H16X   3026       0.09      1.008
 11925       HAL3    433   POPC   H16Y   3026       0.09      1.008
 11926       HAL3    433   POPC   H16Z   3026       0.09      1.008   ; qtot 0
; residue 434 POPC rtp POPC q  0.0
 11927        NTL    434   POPC      N   3027       -0.6     14.007
 11928       CTL2    434   POPC    C12   3027       -0.1     12.011
 11929         HL    434   POPC   H12A   3027       0.25      1.008
 11930         HL    434   POPC   H12B   3027       0.25      1.008
 11931       CTL5    434   POPC    C13   3027      -0.35     12.011
 11932         HL    434   POPC   H13A   3027       0.25      1.008
 11933         HL    434   POPC   H13B   3027       0.25      1.008
 11934         HL    434   POPC   H13C   3027       0.25      1.008
 11935       CTL5    434   POPC    C14   3027      -0.35     12.011
 11936         HL    434   POPC   H14A   3027       0.25      1.008
 11937         HL    434   POPC   H14B   3027       0.25      1.008
 11938         HL    434   POPC   H14C   3027       0.25      1.008
 11939       CTL5    434   POPC    C15   3027      -0.35     12.011
 11940         HL    434   POPC   H15A   3027       0.25      1.008
 11941         HL    434   POPC   H15B   3027       0.25      1.008
 11942         HL    434   POPC   H15C   3027       0.25      1.008
 11943       CTL2    434   POPC    C11   3028      -0.08     12.011
 11944       HAL2    434   POPC   H11A   3028       0.09      1.008
 11945       HAL2    434   POPC   H11B   3028       0.09      1.008
 11946         PL    434   POPC      P   3028        1.5     30.974
 11947        O2L    434   POPC    O13   3028      -0.78    15.9994
 11948        O2L    434   POPC    O14   3028      -0.78    15.9994
 11949       OSLP    434   POPC    O12   3028      -0.57    15.9994
 11950       OSLP    434   POPC    O11   3028      -0.57    15.9994
 11951       CTL2    434   POPC     C1   3028      -0.08     12.011
 11952       HAL2    434   POPC     HA   3028       0.09      1.008
 11953       HAL2    434   POPC     HB   3028       0.09      1.008
 11954       CTL1    434   POPC     C2   3029       0.17     12.011
 11955       HAL1    434   POPC     HS   3029       0.09      1.008
 11956        OSL    434   POPC    O21   3029      -0.49    15.9994
 11957         CL    434   POPC    C21   3029        0.9     12.011
 11958        OBL    434   POPC    O22   3029      -0.63    15.9994
 11959       CTL2    434   POPC    C22   3029      -0.22     12.011
 11960       HAL2    434   POPC    H2R   3029       0.09      1.008
 11961       HAL2    434   POPC    H2S   3029       0.09      1.008
 11962       CTL2    434   POPC     C3   3030       0.08     12.011
 11963       HAL2    434   POPC     HX   3030       0.09      1.008
 11964       HAL2    434   POPC     HY   3030       0.09      1.008
 11965        OSL    434   POPC    O31   3030      -0.49    15.9994
 11966         CL    434   POPC    C31   3030        0.9     12.011
 11967        OBL    434   POPC    O32   3030      -0.63    15.9994
 11968       CTL2    434   POPC    C32   3030      -0.22     12.011
 11969       HAL2    434   POPC    H2X   3030       0.09      1.008
 11970       HAL2    434   POPC    H2Y   3030       0.09      1.008
 11971       CTL2    434   POPC    C23   3031      -0.18     12.011
 11972       HAL2    434   POPC    H3R   3031       0.09      1.008
 11973       HAL2    434   POPC    H3S   3031       0.09      1.008
 11974       CTL2    434   POPC    C24   3032      -0.18     12.011
 11975       HAL2    434   POPC    H4R   3032       0.09      1.008
 11976       HAL2    434   POPC    H4S   3032       0.09      1.008
 11977       CTL2    434   POPC    C25   3033      -0.18     12.011
 11978       HAL2    434   POPC    H5R   3033       0.09      1.008
 11979       HAL2    434   POPC    H5S   3033       0.09      1.008
 11980       CTL2    434   POPC    C26   3034      -0.18     12.011
 11981       HAL2    434   POPC    H6R   3034       0.09      1.008
 11982       HAL2    434   POPC    H6S   3034       0.09      1.008
 11983       CTL2    434   POPC    C27   3035      -0.18     12.011
 11984       HAL2    434   POPC    H7R   3035       0.09      1.008
 11985       HAL2    434   POPC    H7S   3035       0.09      1.008
 11986       CTL2    434   POPC    C28   3036      -0.18     12.011
 11987       HAL2    434   POPC    H8R   3036       0.09      1.008
 11988       HAL2    434   POPC    H8S   3036       0.09      1.008
 11989       CEL1    434   POPC    C29   3037      -0.15     12.011
 11990       HEL1    434   POPC    H91   3037       0.15      1.008
 11991       CEL1    434   POPC   C210   3038      -0.15     12.011
 11992       HEL1    434   POPC   H101   3038       0.15      1.008
 11993       CTL2    434   POPC   C211   3039      -0.18     12.011
 11994       HAL2    434   POPC   H11R   3039       0.09      1.008
 11995       HAL2    434   POPC   H11S   3039       0.09      1.008
 11996       CTL2    434   POPC   C212   3040      -0.18     12.011
 11997       HAL2    434   POPC   H12R   3040       0.09      1.008
 11998       HAL2    434   POPC   H12S   3040       0.09      1.008
 11999       CTL2    434   POPC   C213   3041      -0.18     12.011
 12000       HAL2    434   POPC   H13R   3041       0.09      1.008
 12001       HAL2    434   POPC   H13S   3041       0.09      1.008
 12002       CTL2    434   POPC   C214   3042      -0.18     12.011
 12003       HAL2    434   POPC   H14R   3042       0.09      1.008
 12004       HAL2    434   POPC   H14S   3042       0.09      1.008
 12005       CTL2    434   POPC   C215   3043      -0.18     12.011
 12006       HAL2    434   POPC   H15R   3043       0.09      1.008
 12007       HAL2    434   POPC   H15S   3043       0.09      1.008
 12008       CTL2    434   POPC   C216   3044      -0.18     12.011
 12009       HAL2    434   POPC   H16R   3044       0.09      1.008
 12010       HAL2    434   POPC   H16S   3044       0.09      1.008
 12011       CTL2    434   POPC   C217   3045      -0.18     12.011
 12012       HAL2    434   POPC   H17R   3045       0.09      1.008
 12013       HAL2    434   POPC   H17S   3045       0.09      1.008
 12014       CTL3    434   POPC   C218   3046      -0.27     12.011
 12015       HAL3    434   POPC   H18R   3046       0.09      1.008
 12016       HAL3    434   POPC   H18S   3046       0.09      1.008
 12017       HAL3    434   POPC   H18T   3046       0.09      1.008
 12018       CTL2    434   POPC    C33   3047      -0.18     12.011
 12019       HAL2    434   POPC    H3X   3047       0.09      1.008
 12020       HAL2    434   POPC    H3Y   3047       0.09      1.008
 12021       CTL2    434   POPC    C34   3048      -0.18     12.011
 12022       HAL2    434   POPC    H4X   3048       0.09      1.008
 12023       HAL2    434   POPC    H4Y   3048       0.09      1.008
 12024       CTL2    434   POPC    C35   3049      -0.18     12.011
 12025       HAL2    434   POPC    H5X   3049       0.09      1.008
 12026       HAL2    434   POPC    H5Y   3049       0.09      1.008
 12027       CTL2    434   POPC    C36   3050      -0.18     12.011
 12028       HAL2    434   POPC    H6X   3050       0.09      1.008
 12029       HAL2    434   POPC    H6Y   3050       0.09      1.008
 12030       CTL2    434   POPC    C37   3051      -0.18     12.011
 12031       HAL2    434   POPC    H7X   3051       0.09      1.008
 12032       HAL2    434   POPC    H7Y   3051       0.09      1.008
 12033       CTL2    434   POPC    C38   3052      -0.18     12.011
 12034       HAL2    434   POPC    H8X   3052       0.09      1.008
 12035       HAL2    434   POPC    H8Y   3052       0.09      1.008
 12036       CTL2    434   POPC    C39   3053      -0.18     12.011
 12037       HAL2    434   POPC    H9X   3053       0.09      1.008
 12038       HAL2    434   POPC    H9Y   3053       0.09      1.008
 12039       CTL2    434   POPC   C310   3054      -0.18     12.011
 12040       HAL2    434   POPC   H10X   3054       0.09      1.008
 12041       HAL2    434   POPC   H10Y   3054       0.09      1.008
 12042       CTL2    434   POPC   C311   3055      -0.18     12.011
 12043       HAL2    434   POPC   H11X   3055       0.09      1.008
 12044       HAL2    434   POPC   H11Y   3055       0.09      1.008
 12045       CTL2    434   POPC   C312   3056      -0.18     12.011
 12046       HAL2    434   POPC   H12X   3056       0.09      1.008
 12047       HAL2    434   POPC   H12Y   3056       0.09      1.008
 12048       CTL2    434   POPC   C313   3057      -0.18     12.011
 12049       HAL2    434   POPC   H13X   3057       0.09      1.008
 12050       HAL2    434   POPC   H13Y   3057       0.09      1.008
 12051       CTL2    434   POPC   C314   3058      -0.18     12.011
 12052       HAL2    434   POPC   H14X   3058       0.09      1.008
 12053       HAL2    434   POPC   H14Y   3058       0.09      1.008
 12054       CTL2    434   POPC   C315   3059      -0.18     12.011
 12055       HAL2    434   POPC   H15X   3059       0.09      1.008
 12056       HAL2    434   POPC   H15Y   3059       0.09      1.008
 12057       CTL3    434   POPC   C316   3060      -0.27     12.011
 12058       HAL3    434   POPC   H16X   3060       0.09      1.008
 12059       HAL3    434   POPC   H16Y   3060       0.09      1.008
 12060       HAL3    434   POPC   H16Z   3060       0.09      1.008   ; qtot 0
; residue 435 POPC rtp POPC q  0.0
 12061        NTL    435   POPC      N   3061       -0.6     14.007
 12062       CTL2    435   POPC    C12   3061       -0.1     12.011
 12063         HL    435   POPC   H12A   3061       0.25      1.008
 12064         HL    435   POPC   H12B   3061       0.25      1.008
 12065       CTL5    435   POPC    C13   3061      -0.35     12.011
 12066         HL    435   POPC   H13A   3061       0.25      1.008
 12067         HL    435   POPC   H13B   3061       0.25      1.008
 12068         HL    435   POPC   H13C   3061       0.25      1.008
 12069       CTL5    435   POPC    C14   3061      -0.35     12.011
 12070         HL    435   POPC   H14A   3061       0.25      1.008
 12071         HL    435   POPC   H14B   3061       0.25      1.008
 12072         HL    435   POPC   H14C   3061       0.25      1.008
 12073       CTL5    435   POPC    C15   3061      -0.35     12.011
 12074         HL    435   POPC   H15A   3061       0.25      1.008
 12075         HL    435   POPC   H15B   3061       0.25      1.008
 12076         HL    435   POPC   H15C   3061       0.25      1.008
 12077       CTL2    435   POPC    C11   3062      -0.08     12.011
 12078       HAL2    435   POPC   H11A   3062       0.09      1.008
 12079       HAL2    435   POPC   H11B   3062       0.09      1.008
 12080         PL    435   POPC      P   3062        1.5     30.974
 12081        O2L    435   POPC    O13   3062      -0.78    15.9994
 12082        O2L    435   POPC    O14   3062      -0.78    15.9994
 12083       OSLP    435   POPC    O12   3062      -0.57    15.9994
 12084       OSLP    435   POPC    O11   3062      -0.57    15.9994
 12085       CTL2    435   POPC     C1   3062      -0.08     12.011
 12086       HAL2    435   POPC     HA   3062       0.09      1.008
 12087       HAL2    435   POPC     HB   3062       0.09      1.008
 12088       CTL1    435   POPC     C2   3063       0.17     12.011
 12089       HAL1    435   POPC     HS   3063       0.09      1.008
 12090        OSL    435   POPC    O21   3063      -0.49    15.9994
 12091         CL    435   POPC    C21   3063        0.9     12.011
 12092        OBL    435   POPC    O22   3063      -0.63    15.9994
 12093       CTL2    435   POPC    C22   3063      -0.22     12.011
 12094       HAL2    435   POPC    H2R   3063       0.09      1.008
 12095       HAL2    435   POPC    H2S   3063       0.09      1.008
 12096       CTL2    435   POPC     C3   3064       0.08     12.011
 12097       HAL2    435   POPC     HX   3064       0.09      1.008
 12098       HAL2    435   POPC     HY   3064       0.09      1.008
 12099        OSL    435   POPC    O31   3064      -0.49    15.9994
 12100         CL    435   POPC    C31   3064        0.9     12.011
 12101        OBL    435   POPC    O32   3064      -0.63    15.9994
 12102       CTL2    435   POPC    C32   3064      -0.22     12.011
 12103       HAL2    435   POPC    H2X   3064       0.09      1.008
 12104       HAL2    435   POPC    H2Y   3064       0.09      1.008
 12105       CTL2    435   POPC    C23   3065      -0.18     12.011
 12106       HAL2    435   POPC    H3R   3065       0.09      1.008
 12107       HAL2    435   POPC    H3S   3065       0.09      1.008
 12108       CTL2    435   POPC    C24   3066      -0.18     12.011
 12109       HAL2    435   POPC    H4R   3066       0.09      1.008
 12110       HAL2    435   POPC    H4S   3066       0.09      1.008
 12111       CTL2    435   POPC    C25   3067      -0.18     12.011
 12112       HAL2    435   POPC    H5R   3067       0.09      1.008
 12113       HAL2    435   POPC    H5S   3067       0.09      1.008
 12114       CTL2    435   POPC    C26   3068      -0.18     12.011
 12115       HAL2    435   POPC    H6R   3068       0.09      1.008
 12116       HAL2    435   POPC    H6S   3068       0.09      1.008
 12117       CTL2    435   POPC    C27   3069      -0.18     12.011
 12118       HAL2    435   POPC    H7R   3069       0.09      1.008
 12119       HAL2    435   POPC    H7S   3069       0.09      1.008
 12120       CTL2    435   POPC    C28   3070      -0.18     12.011
 12121       HAL2    435   POPC    H8R   3070       0.09      1.008
 12122       HAL2    435   POPC    H8S   3070       0.09      1.008
 12123       CEL1    435   POPC    C29   3071      -0.15     12.011
 12124       HEL1    435   POPC    H91   3071       0.15      1.008
 12125       CEL1    435   POPC   C210   3072      -0.15     12.011
 12126       HEL1    435   POPC   H101   3072       0.15      1.008
 12127       CTL2    435   POPC   C211   3073      -0.18     12.011
 12128       HAL2    435   POPC   H11R   3073       0.09      1.008
 12129       HAL2    435   POPC   H11S   3073       0.09      1.008
 12130       CTL2    435   POPC   C212   3074      -0.18     12.011
 12131       HAL2    435   POPC   H12R   3074       0.09      1.008
 12132       HAL2    435   POPC   H12S   3074       0.09      1.008
 12133       CTL2    435   POPC   C213   3075      -0.18     12.011
 12134       HAL2    435   POPC   H13R   3075       0.09      1.008
 12135       HAL2    435   POPC   H13S   3075       0.09      1.008
 12136       CTL2    435   POPC   C214   3076      -0.18     12.011
 12137       HAL2    435   POPC   H14R   3076       0.09      1.008
 12138       HAL2    435   POPC   H14S   3076       0.09      1.008
 12139       CTL2    435   POPC   C215   3077      -0.18     12.011
 12140       HAL2    435   POPC   H15R   3077       0.09      1.008
 12141       HAL2    435   POPC   H15S   3077       0.09      1.008
 12142       CTL2    435   POPC   C216   3078      -0.18     12.011
 12143       HAL2    435   POPC   H16R   3078       0.09      1.008
 12144       HAL2    435   POPC   H16S   3078       0.09      1.008
 12145       CTL2    435   POPC   C217   3079      -0.18     12.011
 12146       HAL2    435   POPC   H17R   3079       0.09      1.008
 12147       HAL2    435   POPC   H17S   3079       0.09      1.008
 12148       CTL3    435   POPC   C218   3080      -0.27     12.011
 12149       HAL3    435   POPC   H18R   3080       0.09      1.008
 12150       HAL3    435   POPC   H18S   3080       0.09      1.008
 12151       HAL3    435   POPC   H18T   3080       0.09      1.008
 12152       CTL2    435   POPC    C33   3081      -0.18     12.011
 12153       HAL2    435   POPC    H3X   3081       0.09      1.008
 12154       HAL2    435   POPC    H3Y   3081       0.09      1.008
 12155       CTL2    435   POPC    C34   3082      -0.18     12.011
 12156       HAL2    435   POPC    H4X   3082       0.09      1.008
 12157       HAL2    435   POPC    H4Y   3082       0.09      1.008
 12158       CTL2    435   POPC    C35   3083      -0.18     12.011
 12159       HAL2    435   POPC    H5X   3083       0.09      1.008
 12160       HAL2    435   POPC    H5Y   3083       0.09      1.008
 12161       CTL2    435   POPC    C36   3084      -0.18     12.011
 12162       HAL2    435   POPC    H6X   3084       0.09      1.008
 12163       HAL2    435   POPC    H6Y   3084       0.09      1.008
 12164       CTL2    435   POPC    C37   3085      -0.18     12.011
 12165       HAL2    435   POPC    H7X   3085       0.09      1.008
 12166       HAL2    435   POPC    H7Y   3085       0.09      1.008
 12167       CTL2    435   POPC    C38   3086      -0.18     12.011
 12168       HAL2    435   POPC    H8X   3086       0.09      1.008
 12169       HAL2    435   POPC    H8Y   3086       0.09      1.008
 12170       CTL2    435   POPC    C39   3087      -0.18     12.011
 12171       HAL2    435   POPC    H9X   3087       0.09      1.008
 12172       HAL2    435   POPC    H9Y   3087       0.09      1.008
 12173       CTL2    435   POPC   C310   3088      -0.18     12.011
 12174       HAL2    435   POPC   H10X   3088       0.09      1.008
 12175       HAL2    435   POPC   H10Y   3088       0.09      1.008
 12176       CTL2    435   POPC   C311   3089      -0.18     12.011
 12177       HAL2    435   POPC   H11X   3089       0.09      1.008
 12178       HAL2    435   POPC   H11Y   3089       0.09      1.008
 12179       CTL2    435   POPC   C312   3090      -0.18     12.011
 12180       HAL2    435   POPC   H12X   3090       0.09      1.008
 12181       HAL2    435   POPC   H12Y   3090       0.09      1.008
 12182       CTL2    435   POPC   C313   3091      -0.18     12.011
 12183       HAL2    435   POPC   H13X   3091       0.09      1.008
 12184       HAL2    435   POPC   H13Y   3091       0.09      1.008
 12185       CTL2    435   POPC   C314   3092      -0.18     12.011
 12186       HAL2    435   POPC   H14X   3092       0.09      1.008
 12187       HAL2    435   POPC   H14Y   3092       0.09      1.008
 12188       CTL2    435   POPC   C315   3093      -0.18     12.011
 12189       HAL2    435   POPC   H15X   3093       0.09      1.008
 12190       HAL2    435   POPC   H15Y   3093       0.09      1.008
 12191       CTL3    435   POPC   C316   3094      -0.27     12.011
 12192       HAL3    435   POPC   H16X   3094       0.09      1.008
 12193       HAL3    435   POPC   H16Y   3094       0.09      1.008
 12194       HAL3    435   POPC   H16Z   3094       0.09      1.008   ; qtot 0
; residue 436 POPC rtp POPC q  0.0
 12195        NTL    436   POPC      N   3095       -0.6     14.007
 12196       CTL2    436   POPC    C12   3095       -0.1     12.011
 12197         HL    436   POPC   H12A   3095       0.25      1.008
 12198         HL    436   POPC   H12B   3095       0.25      1.008
 12199       CTL5    436   POPC    C13   3095      -0.35     12.011
 12200         HL    436   POPC   H13A   3095       0.25      1.008
 12201         HL    436   POPC   H13B   3095       0.25      1.008
 12202         HL    436   POPC   H13C   3095       0.25      1.008
 12203       CTL5    436   POPC    C14   3095      -0.35     12.011
 12204         HL    436   POPC   H14A   3095       0.25      1.008
 12205         HL    436   POPC   H14B   3095       0.25      1.008
 12206         HL    436   POPC   H14C   3095       0.25      1.008
 12207       CTL5    436   POPC    C15   3095      -0.35     12.011
 12208         HL    436   POPC   H15A   3095       0.25      1.008
 12209         HL    436   POPC   H15B   3095       0.25      1.008
 12210         HL    436   POPC   H15C   3095       0.25      1.008
 12211       CTL2    436   POPC    C11   3096      -0.08     12.011
 12212       HAL2    436   POPC   H11A   3096       0.09      1.008
 12213       HAL2    436   POPC   H11B   3096       0.09      1.008
 12214         PL    436   POPC      P   3096        1.5     30.974
 12215        O2L    436   POPC    O13   3096      -0.78    15.9994
 12216        O2L    436   POPC    O14   3096      -0.78    15.9994
 12217       OSLP    436   POPC    O12   3096      -0.57    15.9994
 12218       OSLP    436   POPC    O11   3096      -0.57    15.9994
 12219       CTL2    436   POPC     C1   3096      -0.08     12.011
 12220       HAL2    436   POPC     HA   3096       0.09      1.008
 12221       HAL2    436   POPC     HB   3096       0.09      1.008
 12222       CTL1    436   POPC     C2   3097       0.17     12.011
 12223       HAL1    436   POPC     HS   3097       0.09      1.008
 12224        OSL    436   POPC    O21   3097      -0.49    15.9994
 12225         CL    436   POPC    C21   3097        0.9     12.011
 12226        OBL    436   POPC    O22   3097      -0.63    15.9994
 12227       CTL2    436   POPC    C22   3097      -0.22     12.011
 12228       HAL2    436   POPC    H2R   3097       0.09      1.008
 12229       HAL2    436   POPC    H2S   3097       0.09      1.008
 12230       CTL2    436   POPC     C3   3098       0.08     12.011
 12231       HAL2    436   POPC     HX   3098       0.09      1.008
 12232       HAL2    436   POPC     HY   3098       0.09      1.008
 12233        OSL    436   POPC    O31   3098      -0.49    15.9994
 12234         CL    436   POPC    C31   3098        0.9     12.011
 12235        OBL    436   POPC    O32   3098      -0.63    15.9994
 12236       CTL2    436   POPC    C32   3098      -0.22     12.011
 12237       HAL2    436   POPC    H2X   3098       0.09      1.008
 12238       HAL2    436   POPC    H2Y   3098       0.09      1.008
 12239       CTL2    436   POPC    C23   3099      -0.18     12.011
 12240       HAL2    436   POPC    H3R   3099       0.09      1.008
 12241       HAL2    436   POPC    H3S   3099       0.09      1.008
 12242       CTL2    436   POPC    C24   3100      -0.18     12.011
 12243       HAL2    436   POPC    H4R   3100       0.09      1.008
 12244       HAL2    436   POPC    H4S   3100       0.09      1.008
 12245       CTL2    436   POPC    C25   3101      -0.18     12.011
 12246       HAL2    436   POPC    H5R   3101       0.09      1.008
 12247       HAL2    436   POPC    H5S   3101       0.09      1.008
 12248       CTL2    436   POPC    C26   3102      -0.18     12.011
 12249       HAL2    436   POPC    H6R   3102       0.09      1.008
 12250       HAL2    436   POPC    H6S   3102       0.09      1.008
 12251       CTL2    436   POPC    C27   3103      -0.18     12.011
 12252       HAL2    436   POPC    H7R   3103       0.09      1.008
 12253       HAL2    436   POPC    H7S   3103       0.09      1.008
 12254       CTL2    436   POPC    C28   3104      -0.18     12.011
 12255       HAL2    436   POPC    H8R   3104       0.09      1.008
 12256       HAL2    436   POPC    H8S   3104       0.09      1.008
 12257       CEL1    436   POPC    C29   3105      -0.15     12.011
 12258       HEL1    436   POPC    H91   3105       0.15      1.008
 12259       CEL1    436   POPC   C210   3106      -0.15     12.011
 12260       HEL1    436   POPC   H101   3106       0.15      1.008
 12261       CTL2    436   POPC   C211   3107      -0.18     12.011
 12262       HAL2    436   POPC   H11R   3107       0.09      1.008
 12263       HAL2    436   POPC   H11S   3107       0.09      1.008
 12264       CTL2    436   POPC   C212   3108      -0.18     12.011
 12265       HAL2    436   POPC   H12R   3108       0.09      1.008
 12266       HAL2    436   POPC   H12S   3108       0.09      1.008
 12267       CTL2    436   POPC   C213   3109      -0.18     12.011
 12268       HAL2    436   POPC   H13R   3109       0.09      1.008
 12269       HAL2    436   POPC   H13S   3109       0.09      1.008
 12270       CTL2    436   POPC   C214   3110      -0.18     12.011
 12271       HAL2    436   POPC   H14R   3110       0.09      1.008
 12272       HAL2    436   POPC   H14S   3110       0.09      1.008
 12273       CTL2    436   POPC   C215   3111      -0.18     12.011
 12274       HAL2    436   POPC   H15R   3111       0.09      1.008
 12275       HAL2    436   POPC   H15S   3111       0.09      1.008
 12276       CTL2    436   POPC   C216   3112      -0.18     12.011
 12277       HAL2    436   POPC   H16R   3112       0.09      1.008
 12278       HAL2    436   POPC   H16S   3112       0.09      1.008
 12279       CTL2    436   POPC   C217   3113      -0.18     12.011
 12280       HAL2    436   POPC   H17R   3113       0.09      1.008
 12281       HAL2    436   POPC   H17S   3113       0.09      1.008
 12282       CTL3    436   POPC   C218   3114      -0.27     12.011
 12283       HAL3    436   POPC   H18R   3114       0.09      1.008
 12284       HAL3    436   POPC   H18S   3114       0.09      1.008
 12285       HAL3    436   POPC   H18T   3114       0.09      1.008
 12286       CTL2    436   POPC    C33   3115      -0.18     12.011
 12287       HAL2    436   POPC    H3X   3115       0.09      1.008
 12288       HAL2    436   POPC    H3Y   3115       0.09      1.008
 12289       CTL2    436   POPC    C34   3116      -0.18     12.011
 12290       HAL2    436   POPC    H4X   3116       0.09      1.008
 12291       HAL2    436   POPC    H4Y   3116       0.09      1.008
 12292       CTL2    436   POPC    C35   3117      -0.18     12.011
 12293       HAL2    436   POPC    H5X   3117       0.09      1.008
 12294       HAL2    436   POPC    H5Y   3117       0.09      1.008
 12295       CTL2    436   POPC    C36   3118      -0.18     12.011
 12296       HAL2    436   POPC    H6X   3118       0.09      1.008
 12297       HAL2    436   POPC    H6Y   3118       0.09      1.008
 12298       CTL2    436   POPC    C37   3119      -0.18     12.011
 12299       HAL2    436   POPC    H7X   3119       0.09      1.008
 12300       HAL2    436   POPC    H7Y   3119       0.09      1.008
 12301       CTL2    436   POPC    C38   3120      -0.18     12.011
 12302       HAL2    436   POPC    H8X   3120       0.09      1.008
 12303       HAL2    436   POPC    H8Y   3120       0.09      1.008
 12304       CTL2    436   POPC    C39   3121      -0.18     12.011
 12305       HAL2    436   POPC    H9X   3121       0.09      1.008
 12306       HAL2    436   POPC    H9Y   3121       0.09      1.008
 12307       CTL2    436   POPC   C310   3122      -0.18     12.011
 12308       HAL2    436   POPC   H10X   3122       0.09      1.008
 12309       HAL2    436   POPC   H10Y   3122       0.09      1.008
 12310       CTL2    436   POPC   C311   3123      -0.18     12.011
 12311       HAL2    436   POPC   H11X   3123       0.09      1.008
 12312       HAL2    436   POPC   H11Y   3123       0.09      1.008
 12313       CTL2    436   POPC   C312   3124      -0.18     12.011
 12314       HAL2    436   POPC   H12X   3124       0.09      1.008
 12315       HAL2    436   POPC   H12Y   3124       0.09      1.008
 12316       CTL2    436   POPC   C313   3125      -0.18     12.011
 12317       HAL2    436   POPC   H13X   3125       0.09      1.008
 12318       HAL2    436   POPC   H13Y   3125       0.09      1.008
 12319       CTL2    436   POPC   C314   3126      -0.18     12.011
 12320       HAL2    436   POPC   H14X   3126       0.09      1.008
 12321       HAL2    436   POPC   H14Y   3126       0.09      1.008
 12322       CTL2    436   POPC   C315   3127      -0.18     12.011
 12323       HAL2    436   POPC   H15X   3127       0.09      1.008
 12324       HAL2    436   POPC   H15Y   3127       0.09      1.008
 12325       CTL3    436   POPC   C316   3128      -0.27     12.011
 12326       HAL3    436   POPC   H16X   3128       0.09      1.008
 12327       HAL3    436   POPC   H16Y   3128       0.09      1.008
 12328       HAL3    436   POPC   H16Z   3128       0.09      1.008   ; qtot 0
; residue 437 POPC rtp POPC q  0.0
 12329        NTL    437   POPC      N   3129       -0.6     14.007
 12330       CTL2    437   POPC    C12   3129       -0.1     12.011
 12331         HL    437   POPC   H12A   3129       0.25      1.008
 12332         HL    437   POPC   H12B   3129       0.25      1.008
 12333       CTL5    437   POPC    C13   3129      -0.35     12.011
 12334         HL    437   POPC   H13A   3129       0.25      1.008
 12335         HL    437   POPC   H13B   3129       0.25      1.008
 12336         HL    437   POPC   H13C   3129       0.25      1.008
 12337       CTL5    437   POPC    C14   3129      -0.35     12.011
 12338         HL    437   POPC   H14A   3129       0.25      1.008
 12339         HL    437   POPC   H14B   3129       0.25      1.008
 12340         HL    437   POPC   H14C   3129       0.25      1.008
 12341       CTL5    437   POPC    C15   3129      -0.35     12.011
 12342         HL    437   POPC   H15A   3129       0.25      1.008
 12343         HL    437   POPC   H15B   3129       0.25      1.008
 12344         HL    437   POPC   H15C   3129       0.25      1.008
 12345       CTL2    437   POPC    C11   3130      -0.08     12.011
 12346       HAL2    437   POPC   H11A   3130       0.09      1.008
 12347       HAL2    437   POPC   H11B   3130       0.09      1.008
 12348         PL    437   POPC      P   3130        1.5     30.974
 12349        O2L    437   POPC    O13   3130      -0.78    15.9994
 12350        O2L    437   POPC    O14   3130      -0.78    15.9994
 12351       OSLP    437   POPC    O12   3130      -0.57    15.9994
 12352       OSLP    437   POPC    O11   3130      -0.57    15.9994
 12353       CTL2    437   POPC     C1   3130      -0.08     12.011
 12354       HAL2    437   POPC     HA   3130       0.09      1.008
 12355       HAL2    437   POPC     HB   3130       0.09      1.008
 12356       CTL1    437   POPC     C2   3131       0.17     12.011
 12357       HAL1    437   POPC     HS   3131       0.09      1.008
 12358        OSL    437   POPC    O21   3131      -0.49    15.9994
 12359         CL    437   POPC    C21   3131        0.9     12.011
 12360        OBL    437   POPC    O22   3131      -0.63    15.9994
 12361       CTL2    437   POPC    C22   3131      -0.22     12.011
 12362       HAL2    437   POPC    H2R   3131       0.09      1.008
 12363       HAL2    437   POPC    H2S   3131       0.09      1.008
 12364       CTL2    437   POPC     C3   3132       0.08     12.011
 12365       HAL2    437   POPC     HX   3132       0.09      1.008
 12366       HAL2    437   POPC     HY   3132       0.09      1.008
 12367        OSL    437   POPC    O31   3132      -0.49    15.9994
 12368         CL    437   POPC    C31   3132        0.9     12.011
 12369        OBL    437   POPC    O32   3132      -0.63    15.9994
 12370       CTL2    437   POPC    C32   3132      -0.22     12.011
 12371       HAL2    437   POPC    H2X   3132       0.09      1.008
 12372       HAL2    437   POPC    H2Y   3132       0.09      1.008
 12373       CTL2    437   POPC    C23   3133      -0.18     12.011
 12374       HAL2    437   POPC    H3R   3133       0.09      1.008
 12375       HAL2    437   POPC    H3S   3133       0.09      1.008
 12376       CTL2    437   POPC    C24   3134      -0.18     12.011
 12377       HAL2    437   POPC    H4R   3134       0.09      1.008
 12378       HAL2    437   POPC    H4S   3134       0.09      1.008
 12379       CTL2    437   POPC    C25   3135      -0.18     12.011
 12380       HAL2    437   POPC    H5R   3135       0.09      1.008
 12381       HAL2    437   POPC    H5S   3135       0.09      1.008
 12382       CTL2    437   POPC    C26   3136      -0.18     12.011
 12383       HAL2    437   POPC    H6R   3136       0.09      1.008
 12384       HAL2    437   POPC    H6S   3136       0.09      1.008
 12385       CTL2    437   POPC    C27   3137      -0.18     12.011
 12386       HAL2    437   POPC    H7R   3137       0.09      1.008
 12387       HAL2    437   POPC    H7S   3137       0.09      1.008
 12388       CTL2    437   POPC    C28   3138      -0.18     12.011
 12389       HAL2    437   POPC    H8R   3138       0.09      1.008
 12390       HAL2    437   POPC    H8S   3138       0.09      1.008
 12391       CEL1    437   POPC    C29   3139      -0.15     12.011
 12392       HEL1    437   POPC    H91   3139       0.15      1.008
 12393       CEL1    437   POPC   C210   3140      -0.15     12.011
 12394       HEL1    437   POPC   H101   3140       0.15      1.008
 12395       CTL2    437   POPC   C211   3141      -0.18     12.011
 12396       HAL2    437   POPC   H11R   3141       0.09      1.008
 12397       HAL2    437   POPC   H11S   3141       0.09      1.008
 12398       CTL2    437   POPC   C212   3142      -0.18     12.011
 12399       HAL2    437   POPC   H12R   3142       0.09      1.008
 12400       HAL2    437   POPC   H12S   3142       0.09      1.008
 12401       CTL2    437   POPC   C213   3143      -0.18     12.011
 12402       HAL2    437   POPC   H13R   3143       0.09      1.008
 12403       HAL2    437   POPC   H13S   3143       0.09      1.008
 12404       CTL2    437   POPC   C214   3144      -0.18     12.011
 12405       HAL2    437   POPC   H14R   3144       0.09      1.008
 12406       HAL2    437   POPC   H14S   3144       0.09      1.008
 12407       CTL2    437   POPC   C215   3145      -0.18     12.011
 12408       HAL2    437   POPC   H15R   3145       0.09      1.008
 12409       HAL2    437   POPC   H15S   3145       0.09      1.008
 12410       CTL2    437   POPC   C216   3146      -0.18     12.011
 12411       HAL2    437   POPC   H16R   3146       0.09      1.008
 12412       HAL2    437   POPC   H16S   3146       0.09      1.008
 12413       CTL2    437   POPC   C217   3147      -0.18     12.011
 12414       HAL2    437   POPC   H17R   3147       0.09      1.008
 12415       HAL2    437   POPC   H17S   3147       0.09      1.008
 12416       CTL3    437   POPC   C218   3148      -0.27     12.011
 12417       HAL3    437   POPC   H18R   3148       0.09      1.008
 12418       HAL3    437   POPC   H18S   3148       0.09      1.008
 12419       HAL3    437   POPC   H18T   3148       0.09      1.008
 12420       CTL2    437   POPC    C33   3149      -0.18     12.011
 12421       HAL2    437   POPC    H3X   3149       0.09      1.008
 12422       HAL2    437   POPC    H3Y   3149       0.09      1.008
 12423       CTL2    437   POPC    C34   3150      -0.18     12.011
 12424       HAL2    437   POPC    H4X   3150       0.09      1.008
 12425       HAL2    437   POPC    H4Y   3150       0.09      1.008
 12426       CTL2    437   POPC    C35   3151      -0.18     12.011
 12427       HAL2    437   POPC    H5X   3151       0.09      1.008
 12428       HAL2    437   POPC    H5Y   3151       0.09      1.008
 12429       CTL2    437   POPC    C36   3152      -0.18     12.011
 12430       HAL2    437   POPC    H6X   3152       0.09      1.008
 12431       HAL2    437   POPC    H6Y   3152       0.09      1.008
 12432       CTL2    437   POPC    C37   3153      -0.18     12.011
 12433       HAL2    437   POPC    H7X   3153       0.09      1.008
 12434       HAL2    437   POPC    H7Y   3153       0.09      1.008
 12435       CTL2    437   POPC    C38   3154      -0.18     12.011
 12436       HAL2    437   POPC    H8X   3154       0.09      1.008
 12437       HAL2    437   POPC    H8Y   3154       0.09      1.008
 12438       CTL2    437   POPC    C39   3155      -0.18     12.011
 12439       HAL2    437   POPC    H9X   3155       0.09      1.008
 12440       HAL2    437   POPC    H9Y   3155       0.09      1.008
 12441       CTL2    437   POPC   C310   3156      -0.18     12.011
 12442       HAL2    437   POPC   H10X   3156       0.09      1.008
 12443       HAL2    437   POPC   H10Y   3156       0.09      1.008
 12444       CTL2    437   POPC   C311   3157      -0.18     12.011
 12445       HAL2    437   POPC   H11X   3157       0.09      1.008
 12446       HAL2    437   POPC   H11Y   3157       0.09      1.008
 12447       CTL2    437   POPC   C312   3158      -0.18     12.011
 12448       HAL2    437   POPC   H12X   3158       0.09      1.008
 12449       HAL2    437   POPC   H12Y   3158       0.09      1.008
 12450       CTL2    437   POPC   C313   3159      -0.18     12.011
 12451       HAL2    437   POPC   H13X   3159       0.09      1.008
 12452       HAL2    437   POPC   H13Y   3159       0.09      1.008
 12453       CTL2    437   POPC   C314   3160      -0.18     12.011
 12454       HAL2    437   POPC   H14X   3160       0.09      1.008
 12455       HAL2    437   POPC   H14Y   3160       0.09      1.008
 12456       CTL2    437   POPC   C315   3161      -0.18     12.011
 12457       HAL2    437   POPC   H15X   3161       0.09      1.008
 12458       HAL2    437   POPC   H15Y   3161       0.09      1.008
 12459       CTL3    437   POPC   C316   3162      -0.27     12.011
 12460       HAL3    437   POPC   H16X   3162       0.09      1.008
 12461       HAL3    437   POPC   H16Y   3162       0.09      1.008
 12462       HAL3    437   POPC   H16Z   3162       0.09      1.008   ; qtot 0
; residue 438 POPC rtp POPC q  0.0
 12463        NTL    438   POPC      N   3163       -0.6     14.007
 12464       CTL2    438   POPC    C12   3163       -0.1     12.011
 12465         HL    438   POPC   H12A   3163       0.25      1.008
 12466         HL    438   POPC   H12B   3163       0.25      1.008
 12467       CTL5    438   POPC    C13   3163      -0.35     12.011
 12468         HL    438   POPC   H13A   3163       0.25      1.008
 12469         HL    438   POPC   H13B   3163       0.25      1.008
 12470         HL    438   POPC   H13C   3163       0.25      1.008
 12471       CTL5    438   POPC    C14   3163      -0.35     12.011
 12472         HL    438   POPC   H14A   3163       0.25      1.008
 12473         HL    438   POPC   H14B   3163       0.25      1.008
 12474         HL    438   POPC   H14C   3163       0.25      1.008
 12475       CTL5    438   POPC    C15   3163      -0.35     12.011
 12476         HL    438   POPC   H15A   3163       0.25      1.008
 12477         HL    438   POPC   H15B   3163       0.25      1.008
 12478         HL    438   POPC   H15C   3163       0.25      1.008
 12479       CTL2    438   POPC    C11   3164      -0.08     12.011
 12480       HAL2    438   POPC   H11A   3164       0.09      1.008
 12481       HAL2    438   POPC   H11B   3164       0.09      1.008
 12482         PL    438   POPC      P   3164        1.5     30.974
 12483        O2L    438   POPC    O13   3164      -0.78    15.9994
 12484        O2L    438   POPC    O14   3164      -0.78    15.9994
 12485       OSLP    438   POPC    O12   3164      -0.57    15.9994
 12486       OSLP    438   POPC    O11   3164      -0.57    15.9994
 12487       CTL2    438   POPC     C1   3164      -0.08     12.011
 12488       HAL2    438   POPC     HA   3164       0.09      1.008
 12489       HAL2    438   POPC     HB   3164       0.09      1.008
 12490       CTL1    438   POPC     C2   3165       0.17     12.011
 12491       HAL1    438   POPC     HS   3165       0.09      1.008
 12492        OSL    438   POPC    O21   3165      -0.49    15.9994
 12493         CL    438   POPC    C21   3165        0.9     12.011
 12494        OBL    438   POPC    O22   3165      -0.63    15.9994
 12495       CTL2    438   POPC    C22   3165      -0.22     12.011
 12496       HAL2    438   POPC    H2R   3165       0.09      1.008
 12497       HAL2    438   POPC    H2S   3165       0.09      1.008
 12498       CTL2    438   POPC     C3   3166       0.08     12.011
 12499       HAL2    438   POPC     HX   3166       0.09      1.008
 12500       HAL2    438   POPC     HY   3166       0.09      1.008
 12501        OSL    438   POPC    O31   3166      -0.49    15.9994
 12502         CL    438   POPC    C31   3166        0.9     12.011
 12503        OBL    438   POPC    O32   3166      -0.63    15.9994
 12504       CTL2    438   POPC    C32   3166      -0.22     12.011
 12505       HAL2    438   POPC    H2X   3166       0.09      1.008
 12506       HAL2    438   POPC    H2Y   3166       0.09      1.008
 12507       CTL2    438   POPC    C23   3167      -0.18     12.011
 12508       HAL2    438   POPC    H3R   3167       0.09      1.008
 12509       HAL2    438   POPC    H3S   3167       0.09      1.008
 12510       CTL2    438   POPC    C24   3168      -0.18     12.011
 12511       HAL2    438   POPC    H4R   3168       0.09      1.008
 12512       HAL2    438   POPC    H4S   3168       0.09      1.008
 12513       CTL2    438   POPC    C25   3169      -0.18     12.011
 12514       HAL2    438   POPC    H5R   3169       0.09      1.008
 12515       HAL2    438   POPC    H5S   3169       0.09      1.008
 12516       CTL2    438   POPC    C26   3170      -0.18     12.011
 12517       HAL2    438   POPC    H6R   3170       0.09      1.008
 12518       HAL2    438   POPC    H6S   3170       0.09      1.008
 12519       CTL2    438   POPC    C27   3171      -0.18     12.011
 12520       HAL2    438   POPC    H7R   3171       0.09      1.008
 12521       HAL2    438   POPC    H7S   3171       0.09      1.008
 12522       CTL2    438   POPC    C28   3172      -0.18     12.011
 12523       HAL2    438   POPC    H8R   3172       0.09      1.008
 12524       HAL2    438   POPC    H8S   3172       0.09      1.008
 12525       CEL1    438   POPC    C29   3173      -0.15     12.011
 12526       HEL1    438   POPC    H91   3173       0.15      1.008
 12527       CEL1    438   POPC   C210   3174      -0.15     12.011
 12528       HEL1    438   POPC   H101   3174       0.15      1.008
 12529       CTL2    438   POPC   C211   3175      -0.18     12.011
 12530       HAL2    438   POPC   H11R   3175       0.09      1.008
 12531       HAL2    438   POPC   H11S   3175       0.09      1.008
 12532       CTL2    438   POPC   C212   3176      -0.18     12.011
 12533       HAL2    438   POPC   H12R   3176       0.09      1.008
 12534       HAL2    438   POPC   H12S   3176       0.09      1.008
 12535       CTL2    438   POPC   C213   3177      -0.18     12.011
 12536       HAL2    438   POPC   H13R   3177       0.09      1.008
 12537       HAL2    438   POPC   H13S   3177       0.09      1.008
 12538       CTL2    438   POPC   C214   3178      -0.18     12.011
 12539       HAL2    438   POPC   H14R   3178       0.09      1.008
 12540       HAL2    438   POPC   H14S   3178       0.09      1.008
 12541       CTL2    438   POPC   C215   3179      -0.18     12.011
 12542       HAL2    438   POPC   H15R   3179       0.09      1.008
 12543       HAL2    438   POPC   H15S   3179       0.09      1.008
 12544       CTL2    438   POPC   C216   3180      -0.18     12.011
 12545       HAL2    438   POPC   H16R   3180       0.09      1.008
 12546       HAL2    438   POPC   H16S   3180       0.09      1.008
 12547       CTL2    438   POPC   C217   3181      -0.18     12.011
 12548       HAL2    438   POPC   H17R   3181       0.09      1.008
 12549       HAL2    438   POPC   H17S   3181       0.09      1.008
 12550       CTL3    438   POPC   C218   3182      -0.27     12.011
 12551       HAL3    438   POPC   H18R   3182       0.09      1.008
 12552       HAL3    438   POPC   H18S   3182       0.09      1.008
 12553       HAL3    438   POPC   H18T   3182       0.09      1.008
 12554       CTL2    438   POPC    C33   3183      -0.18     12.011
 12555       HAL2    438   POPC    H3X   3183       0.09      1.008
 12556       HAL2    438   POPC    H3Y   3183       0.09      1.008
 12557       CTL2    438   POPC    C34   3184      -0.18     12.011
 12558       HAL2    438   POPC    H4X   3184       0.09      1.008
 12559       HAL2    438   POPC    H4Y   3184       0.09      1.008
 12560       CTL2    438   POPC    C35   3185      -0.18     12.011
 12561       HAL2    438   POPC    H5X   3185       0.09      1.008
 12562       HAL2    438   POPC    H5Y   3185       0.09      1.008
 12563       CTL2    438   POPC    C36   3186      -0.18     12.011
 12564       HAL2    438   POPC    H6X   3186       0.09      1.008
 12565       HAL2    438   POPC    H6Y   3186       0.09      1.008
 12566       CTL2    438   POPC    C37   3187      -0.18     12.011
 12567       HAL2    438   POPC    H7X   3187       0.09      1.008
 12568       HAL2    438   POPC    H7Y   3187       0.09      1.008
 12569       CTL2    438   POPC    C38   3188      -0.18     12.011
 12570       HAL2    438   POPC    H8X   3188       0.09      1.008
 12571       HAL2    438   POPC    H8Y   3188       0.09      1.008
 12572       CTL2    438   POPC    C39   3189      -0.18     12.011
 12573       HAL2    438   POPC    H9X   3189       0.09      1.008
 12574       HAL2    438   POPC    H9Y   3189       0.09      1.008
 12575       CTL2    438   POPC   C310   3190      -0.18     12.011
 12576       HAL2    438   POPC   H10X   3190       0.09      1.008
 12577       HAL2    438   POPC   H10Y   3190       0.09      1.008
 12578       CTL2    438   POPC   C311   3191      -0.18     12.011
 12579       HAL2    438   POPC   H11X   3191       0.09      1.008
 12580       HAL2    438   POPC   H11Y   3191       0.09      1.008
 12581       CTL2    438   POPC   C312   3192      -0.18     12.011
 12582       HAL2    438   POPC   H12X   3192       0.09      1.008
 12583       HAL2    438   POPC   H12Y   3192       0.09      1.008
 12584       CTL2    438   POPC   C313   3193      -0.18     12.011
 12585       HAL2    438   POPC   H13X   3193       0.09      1.008
 12586       HAL2    438   POPC   H13Y   3193       0.09      1.008
 12587       CTL2    438   POPC   C314   3194      -0.18     12.011
 12588       HAL2    438   POPC   H14X   3194       0.09      1.008
 12589       HAL2    438   POPC   H14Y   3194       0.09      1.008
 12590       CTL2    438   POPC   C315   3195      -0.18     12.011
 12591       HAL2    438   POPC   H15X   3195       0.09      1.008
 12592       HAL2    438   POPC   H15Y   3195       0.09      1.008
 12593       CTL3    438   POPC   C316   3196      -0.27     12.011
 12594       HAL3    438   POPC   H16X   3196       0.09      1.008
 12595       HAL3    438   POPC   H16Y   3196       0.09      1.008
 12596       HAL3    438   POPC   H16Z   3196       0.09      1.008   ; qtot 0
; residue 439 POPC rtp POPC q  0.0
 12597        NTL    439   POPC      N   3197       -0.6     14.007
 12598       CTL2    439   POPC    C12   3197       -0.1     12.011
 12599         HL    439   POPC   H12A   3197       0.25      1.008
 12600         HL    439   POPC   H12B   3197       0.25      1.008
 12601       CTL5    439   POPC    C13   3197      -0.35     12.011
 12602         HL    439   POPC   H13A   3197       0.25      1.008
 12603         HL    439   POPC   H13B   3197       0.25      1.008
 12604         HL    439   POPC   H13C   3197       0.25      1.008
 12605       CTL5    439   POPC    C14   3197      -0.35     12.011
 12606         HL    439   POPC   H14A   3197       0.25      1.008
 12607         HL    439   POPC   H14B   3197       0.25      1.008
 12608         HL    439   POPC   H14C   3197       0.25      1.008
 12609       CTL5    439   POPC    C15   3197      -0.35     12.011
 12610         HL    439   POPC   H15A   3197       0.25      1.008
 12611         HL    439   POPC   H15B   3197       0.25      1.008
 12612         HL    439   POPC   H15C   3197       0.25      1.008
 12613       CTL2    439   POPC    C11   3198      -0.08     12.011
 12614       HAL2    439   POPC   H11A   3198       0.09      1.008
 12615       HAL2    439   POPC   H11B   3198       0.09      1.008
 12616         PL    439   POPC      P   3198        1.5     30.974
 12617        O2L    439   POPC    O13   3198      -0.78    15.9994
 12618        O2L    439   POPC    O14   3198      -0.78    15.9994
 12619       OSLP    439   POPC    O12   3198      -0.57    15.9994
 12620       OSLP    439   POPC    O11   3198      -0.57    15.9994
 12621       CTL2    439   POPC     C1   3198      -0.08     12.011
 12622       HAL2    439   POPC     HA   3198       0.09      1.008
 12623       HAL2    439   POPC     HB   3198       0.09      1.008
 12624       CTL1    439   POPC     C2   3199       0.17     12.011
 12625       HAL1    439   POPC     HS   3199       0.09      1.008
 12626        OSL    439   POPC    O21   3199      -0.49    15.9994
 12627         CL    439   POPC    C21   3199        0.9     12.011
 12628        OBL    439   POPC    O22   3199      -0.63    15.9994
 12629       CTL2    439   POPC    C22   3199      -0.22     12.011
 12630       HAL2    439   POPC    H2R   3199       0.09      1.008
 12631       HAL2    439   POPC    H2S   3199       0.09      1.008
 12632       CTL2    439   POPC     C3   3200       0.08     12.011
 12633       HAL2    439   POPC     HX   3200       0.09      1.008
 12634       HAL2    439   POPC     HY   3200       0.09      1.008
 12635        OSL    439   POPC    O31   3200      -0.49    15.9994
 12636         CL    439   POPC    C31   3200        0.9     12.011
 12637        OBL    439   POPC    O32   3200      -0.63    15.9994
 12638       CTL2    439   POPC    C32   3200      -0.22     12.011
 12639       HAL2    439   POPC    H2X   3200       0.09      1.008
 12640       HAL2    439   POPC    H2Y   3200       0.09      1.008
 12641       CTL2    439   POPC    C23   3201      -0.18     12.011
 12642       HAL2    439   POPC    H3R   3201       0.09      1.008
 12643       HAL2    439   POPC    H3S   3201       0.09      1.008
 12644       CTL2    439   POPC    C24   3202      -0.18     12.011
 12645       HAL2    439   POPC    H4R   3202       0.09      1.008
 12646       HAL2    439   POPC    H4S   3202       0.09      1.008
 12647       CTL2    439   POPC    C25   3203      -0.18     12.011
 12648       HAL2    439   POPC    H5R   3203       0.09      1.008
 12649       HAL2    439   POPC    H5S   3203       0.09      1.008
 12650       CTL2    439   POPC    C26   3204      -0.18     12.011
 12651       HAL2    439   POPC    H6R   3204       0.09      1.008
 12652       HAL2    439   POPC    H6S   3204       0.09      1.008
 12653       CTL2    439   POPC    C27   3205      -0.18     12.011
 12654       HAL2    439   POPC    H7R   3205       0.09      1.008
 12655       HAL2    439   POPC    H7S   3205       0.09      1.008
 12656       CTL2    439   POPC    C28   3206      -0.18     12.011
 12657       HAL2    439   POPC    H8R   3206       0.09      1.008
 12658       HAL2    439   POPC    H8S   3206       0.09      1.008
 12659       CEL1    439   POPC    C29   3207      -0.15     12.011
 12660       HEL1    439   POPC    H91   3207       0.15      1.008
 12661       CEL1    439   POPC   C210   3208      -0.15     12.011
 12662       HEL1    439   POPC   H101   3208       0.15      1.008
 12663       CTL2    439   POPC   C211   3209      -0.18     12.011
 12664       HAL2    439   POPC   H11R   3209       0.09      1.008
 12665       HAL2    439   POPC   H11S   3209       0.09      1.008
 12666       CTL2    439   POPC   C212   3210      -0.18     12.011
 12667       HAL2    439   POPC   H12R   3210       0.09      1.008
 12668       HAL2    439   POPC   H12S   3210       0.09      1.008
 12669       CTL2    439   POPC   C213   3211      -0.18     12.011
 12670       HAL2    439   POPC   H13R   3211       0.09      1.008
 12671       HAL2    439   POPC   H13S   3211       0.09      1.008
 12672       CTL2    439   POPC   C214   3212      -0.18     12.011
 12673       HAL2    439   POPC   H14R   3212       0.09      1.008
 12674       HAL2    439   POPC   H14S   3212       0.09      1.008
 12675       CTL2    439   POPC   C215   3213      -0.18     12.011
 12676       HAL2    439   POPC   H15R   3213       0.09      1.008
 12677       HAL2    439   POPC   H15S   3213       0.09      1.008
 12678       CTL2    439   POPC   C216   3214      -0.18     12.011
 12679       HAL2    439   POPC   H16R   3214       0.09      1.008
 12680       HAL2    439   POPC   H16S   3214       0.09      1.008
 12681       CTL2    439   POPC   C217   3215      -0.18     12.011
 12682       HAL2    439   POPC   H17R   3215       0.09      1.008
 12683       HAL2    439   POPC   H17S   3215       0.09      1.008
 12684       CTL3    439   POPC   C218   3216      -0.27     12.011
 12685       HAL3    439   POPC   H18R   3216       0.09      1.008
 12686       HAL3    439   POPC   H18S   3216       0.09      1.008
 12687       HAL3    439   POPC   H18T   3216       0.09      1.008
 12688       CTL2    439   POPC    C33   3217      -0.18     12.011
 12689       HAL2    439   POPC    H3X   3217       0.09      1.008
 12690       HAL2    439   POPC    H3Y   3217       0.09      1.008
 12691       CTL2    439   POPC    C34   3218      -0.18     12.011
 12692       HAL2    439   POPC    H4X   3218       0.09      1.008
 12693       HAL2    439   POPC    H4Y   3218       0.09      1.008
 12694       CTL2    439   POPC    C35   3219      -0.18     12.011
 12695       HAL2    439   POPC    H5X   3219       0.09      1.008
 12696       HAL2    439   POPC    H5Y   3219       0.09      1.008
 12697       CTL2    439   POPC    C36   3220      -0.18     12.011
 12698       HAL2    439   POPC    H6X   3220       0.09      1.008
 12699       HAL2    439   POPC    H6Y   3220       0.09      1.008
 12700       CTL2    439   POPC    C37   3221      -0.18     12.011
 12701       HAL2    439   POPC    H7X   3221       0.09      1.008
 12702       HAL2    439   POPC    H7Y   3221       0.09      1.008
 12703       CTL2    439   POPC    C38   3222      -0.18     12.011
 12704       HAL2    439   POPC    H8X   3222       0.09      1.008
 12705       HAL2    439   POPC    H8Y   3222       0.09      1.008
 12706       CTL2    439   POPC    C39   3223      -0.18     12.011
 12707       HAL2    439   POPC    H9X   3223       0.09      1.008
 12708       HAL2    439   POPC    H9Y   3223       0.09      1.008
 12709       CTL2    439   POPC   C310   3224      -0.18     12.011
 12710       HAL2    439   POPC   H10X   3224       0.09      1.008
 12711       HAL2    439   POPC   H10Y   3224       0.09      1.008
 12712       CTL2    439   POPC   C311   3225      -0.18     12.011
 12713       HAL2    439   POPC   H11X   3225       0.09      1.008
 12714       HAL2    439   POPC   H11Y   3225       0.09      1.008
 12715       CTL2    439   POPC   C312   3226      -0.18     12.011
 12716       HAL2    439   POPC   H12X   3226       0.09      1.008
 12717       HAL2    439   POPC   H12Y   3226       0.09      1.008
 12718       CTL2    439   POPC   C313   3227      -0.18     12.011
 12719       HAL2    439   POPC   H13X   3227       0.09      1.008
 12720       HAL2    439   POPC   H13Y   3227       0.09      1.008
 12721       CTL2    439   POPC   C314   3228      -0.18     12.011
 12722       HAL2    439   POPC   H14X   3228       0.09      1.008
 12723       HAL2    439   POPC   H14Y   3228       0.09      1.008
 12724       CTL2    439   POPC   C315   3229      -0.18     12.011
 12725       HAL2    439   POPC   H15X   3229       0.09      1.008
 12726       HAL2    439   POPC   H15Y   3229       0.09      1.008
 12727       CTL3    439   POPC   C316   3230      -0.27     12.011
 12728       HAL3    439   POPC   H16X   3230       0.09      1.008
 12729       HAL3    439   POPC   H16Y   3230       0.09      1.008
 12730       HAL3    439   POPC   H16Z   3230       0.09      1.008   ; qtot 0
; residue 440 POPC rtp POPC q  0.0
 12731        NTL    440   POPC      N   3231       -0.6     14.007
 12732       CTL2    440   POPC    C12   3231       -0.1     12.011
 12733         HL    440   POPC   H12A   3231       0.25      1.008
 12734         HL    440   POPC   H12B   3231       0.25      1.008
 12735       CTL5    440   POPC    C13   3231      -0.35     12.011
 12736         HL    440   POPC   H13A   3231       0.25      1.008
 12737         HL    440   POPC   H13B   3231       0.25      1.008
 12738         HL    440   POPC   H13C   3231       0.25      1.008
 12739       CTL5    440   POPC    C14   3231      -0.35     12.011
 12740         HL    440   POPC   H14A   3231       0.25      1.008
 12741         HL    440   POPC   H14B   3231       0.25      1.008
 12742         HL    440   POPC   H14C   3231       0.25      1.008
 12743       CTL5    440   POPC    C15   3231      -0.35     12.011
 12744         HL    440   POPC   H15A   3231       0.25      1.008
 12745         HL    440   POPC   H15B   3231       0.25      1.008
 12746         HL    440   POPC   H15C   3231       0.25      1.008
 12747       CTL2    440   POPC    C11   3232      -0.08     12.011
 12748       HAL2    440   POPC   H11A   3232       0.09      1.008
 12749       HAL2    440   POPC   H11B   3232       0.09      1.008
 12750         PL    440   POPC      P   3232        1.5     30.974
 12751        O2L    440   POPC    O13   3232      -0.78    15.9994
 12752        O2L    440   POPC    O14   3232      -0.78    15.9994
 12753       OSLP    440   POPC    O12   3232      -0.57    15.9994
 12754       OSLP    440   POPC    O11   3232      -0.57    15.9994
 12755       CTL2    440   POPC     C1   3232      -0.08     12.011
 12756       HAL2    440   POPC     HA   3232       0.09      1.008
 12757       HAL2    440   POPC     HB   3232       0.09      1.008
 12758       CTL1    440   POPC     C2   3233       0.17     12.011
 12759       HAL1    440   POPC     HS   3233       0.09      1.008
 12760        OSL    440   POPC    O21   3233      -0.49    15.9994
 12761         CL    440   POPC    C21   3233        0.9     12.011
 12762        OBL    440   POPC    O22   3233      -0.63    15.9994
 12763       CTL2    440   POPC    C22   3233      -0.22     12.011
 12764       HAL2    440   POPC    H2R   3233       0.09      1.008
 12765       HAL2    440   POPC    H2S   3233       0.09      1.008
 12766       CTL2    440   POPC     C3   3234       0.08     12.011
 12767       HAL2    440   POPC     HX   3234       0.09      1.008
 12768       HAL2    440   POPC     HY   3234       0.09      1.008
 12769        OSL    440   POPC    O31   3234      -0.49    15.9994
 12770         CL    440   POPC    C31   3234        0.9     12.011
 12771        OBL    440   POPC    O32   3234      -0.63    15.9994
 12772       CTL2    440   POPC    C32   3234      -0.22     12.011
 12773       HAL2    440   POPC    H2X   3234       0.09      1.008
 12774       HAL2    440   POPC    H2Y   3234       0.09      1.008
 12775       CTL2    440   POPC    C23   3235      -0.18     12.011
 12776       HAL2    440   POPC    H3R   3235       0.09      1.008
 12777       HAL2    440   POPC    H3S   3235       0.09      1.008
 12778       CTL2    440   POPC    C24   3236      -0.18     12.011
 12779       HAL2    440   POPC    H4R   3236       0.09      1.008
 12780       HAL2    440   POPC    H4S   3236       0.09      1.008
 12781       CTL2    440   POPC    C25   3237      -0.18     12.011
 12782       HAL2    440   POPC    H5R   3237       0.09      1.008
 12783       HAL2    440   POPC    H5S   3237       0.09      1.008
 12784       CTL2    440   POPC    C26   3238      -0.18     12.011
 12785       HAL2    440   POPC    H6R   3238       0.09      1.008
 12786       HAL2    440   POPC    H6S   3238       0.09      1.008
 12787       CTL2    440   POPC    C27   3239      -0.18     12.011
 12788       HAL2    440   POPC    H7R   3239       0.09      1.008
 12789       HAL2    440   POPC    H7S   3239       0.09      1.008
 12790       CTL2    440   POPC    C28   3240      -0.18     12.011
 12791       HAL2    440   POPC    H8R   3240       0.09      1.008
 12792       HAL2    440   POPC    H8S   3240       0.09      1.008
 12793       CEL1    440   POPC    C29   3241      -0.15     12.011
 12794       HEL1    440   POPC    H91   3241       0.15      1.008
 12795       CEL1    440   POPC   C210   3242      -0.15     12.011
 12796       HEL1    440   POPC   H101   3242       0.15      1.008
 12797       CTL2    440   POPC   C211   3243      -0.18     12.011
 12798       HAL2    440   POPC   H11R   3243       0.09      1.008
 12799       HAL2    440   POPC   H11S   3243       0.09      1.008
 12800       CTL2    440   POPC   C212   3244      -0.18     12.011
 12801       HAL2    440   POPC   H12R   3244       0.09      1.008
 12802       HAL2    440   POPC   H12S   3244       0.09      1.008
 12803       CTL2    440   POPC   C213   3245      -0.18     12.011
 12804       HAL2    440   POPC   H13R   3245       0.09      1.008
 12805       HAL2    440   POPC   H13S   3245       0.09      1.008
 12806       CTL2    440   POPC   C214   3246      -0.18     12.011
 12807       HAL2    440   POPC   H14R   3246       0.09      1.008
 12808       HAL2    440   POPC   H14S   3246       0.09      1.008
 12809       CTL2    440   POPC   C215   3247      -0.18     12.011
 12810       HAL2    440   POPC   H15R   3247       0.09      1.008
 12811       HAL2    440   POPC   H15S   3247       0.09      1.008
 12812       CTL2    440   POPC   C216   3248      -0.18     12.011
 12813       HAL2    440   POPC   H16R   3248       0.09      1.008
 12814       HAL2    440   POPC   H16S   3248       0.09      1.008
 12815       CTL2    440   POPC   C217   3249      -0.18     12.011
 12816       HAL2    440   POPC   H17R   3249       0.09      1.008
 12817       HAL2    440   POPC   H17S   3249       0.09      1.008
 12818       CTL3    440   POPC   C218   3250      -0.27     12.011
 12819       HAL3    440   POPC   H18R   3250       0.09      1.008
 12820       HAL3    440   POPC   H18S   3250       0.09      1.008
 12821       HAL3    440   POPC   H18T   3250       0.09      1.008
 12822       CTL2    440   POPC    C33   3251      -0.18     12.011
 12823       HAL2    440   POPC    H3X   3251       0.09      1.008
 12824       HAL2    440   POPC    H3Y   3251       0.09      1.008
 12825       CTL2    440   POPC    C34   3252      -0.18     12.011
 12826       HAL2    440   POPC    H4X   3252       0.09      1.008
 12827       HAL2    440   POPC    H4Y   3252       0.09      1.008
 12828       CTL2    440   POPC    C35   3253      -0.18     12.011
 12829       HAL2    440   POPC    H5X   3253       0.09      1.008
 12830       HAL2    440   POPC    H5Y   3253       0.09      1.008
 12831       CTL2    440   POPC    C36   3254      -0.18     12.011
 12832       HAL2    440   POPC    H6X   3254       0.09      1.008
 12833       HAL2    440   POPC    H6Y   3254       0.09      1.008
 12834       CTL2    440   POPC    C37   3255      -0.18     12.011
 12835       HAL2    440   POPC    H7X   3255       0.09      1.008
 12836       HAL2    440   POPC    H7Y   3255       0.09      1.008
 12837       CTL2    440   POPC    C38   3256      -0.18     12.011
 12838       HAL2    440   POPC    H8X   3256       0.09      1.008
 12839       HAL2    440   POPC    H8Y   3256       0.09      1.008
 12840       CTL2    440   POPC    C39   3257      -0.18     12.011
 12841       HAL2    440   POPC    H9X   3257       0.09      1.008
 12842       HAL2    440   POPC    H9Y   3257       0.09      1.008
 12843       CTL2    440   POPC   C310   3258      -0.18     12.011
 12844       HAL2    440   POPC   H10X   3258       0.09      1.008
 12845       HAL2    440   POPC   H10Y   3258       0.09      1.008
 12846       CTL2    440   POPC   C311   3259      -0.18     12.011
 12847       HAL2    440   POPC   H11X   3259       0.09      1.008
 12848       HAL2    440   POPC   H11Y   3259       0.09      1.008
 12849       CTL2    440   POPC   C312   3260      -0.18     12.011
 12850       HAL2    440   POPC   H12X   3260       0.09      1.008
 12851       HAL2    440   POPC   H12Y   3260       0.09      1.008
 12852       CTL2    440   POPC   C313   3261      -0.18     12.011
 12853       HAL2    440   POPC   H13X   3261       0.09      1.008
 12854       HAL2    440   POPC   H13Y   3261       0.09      1.008
 12855       CTL2    440   POPC   C314   3262      -0.18     12.011
 12856       HAL2    440   POPC   H14X   3262       0.09      1.008
 12857       HAL2    440   POPC   H14Y   3262       0.09      1.008
 12858       CTL2    440   POPC   C315   3263      -0.18     12.011
 12859       HAL2    440   POPC   H15X   3263       0.09      1.008
 12860       HAL2    440   POPC   H15Y   3263       0.09      1.008
 12861       CTL3    440   POPC   C316   3264      -0.27     12.011
 12862       HAL3    440   POPC   H16X   3264       0.09      1.008
 12863       HAL3    440   POPC   H16Y   3264       0.09      1.008
 12864       HAL3    440   POPC   H16Z   3264       0.09      1.008   ; qtot 0
; residue 441 POPC rtp POPC q  0.0
 12865        NTL    441   POPC      N   3265       -0.6     14.007
 12866       CTL2    441   POPC    C12   3265       -0.1     12.011
 12867         HL    441   POPC   H12A   3265       0.25      1.008
 12868         HL    441   POPC   H12B   3265       0.25      1.008
 12869       CTL5    441   POPC    C13   3265      -0.35     12.011
 12870         HL    441   POPC   H13A   3265       0.25      1.008
 12871         HL    441   POPC   H13B   3265       0.25      1.008
 12872         HL    441   POPC   H13C   3265       0.25      1.008
 12873       CTL5    441   POPC    C14   3265      -0.35     12.011
 12874         HL    441   POPC   H14A   3265       0.25      1.008
 12875         HL    441   POPC   H14B   3265       0.25      1.008
 12876         HL    441   POPC   H14C   3265       0.25      1.008
 12877       CTL5    441   POPC    C15   3265      -0.35     12.011
 12878         HL    441   POPC   H15A   3265       0.25      1.008
 12879         HL    441   POPC   H15B   3265       0.25      1.008
 12880         HL    441   POPC   H15C   3265       0.25      1.008
 12881       CTL2    441   POPC    C11   3266      -0.08     12.011
 12882       HAL2    441   POPC   H11A   3266       0.09      1.008
 12883       HAL2    441   POPC   H11B   3266       0.09      1.008
 12884         PL    441   POPC      P   3266        1.5     30.974
 12885        O2L    441   POPC    O13   3266      -0.78    15.9994
 12886        O2L    441   POPC    O14   3266      -0.78    15.9994
 12887       OSLP    441   POPC    O12   3266      -0.57    15.9994
 12888       OSLP    441   POPC    O11   3266      -0.57    15.9994
 12889       CTL2    441   POPC     C1   3266      -0.08     12.011
 12890       HAL2    441   POPC     HA   3266       0.09      1.008
 12891       HAL2    441   POPC     HB   3266       0.09      1.008
 12892       CTL1    441   POPC     C2   3267       0.17     12.011
 12893       HAL1    441   POPC     HS   3267       0.09      1.008
 12894        OSL    441   POPC    O21   3267      -0.49    15.9994
 12895         CL    441   POPC    C21   3267        0.9     12.011
 12896        OBL    441   POPC    O22   3267      -0.63    15.9994
 12897       CTL2    441   POPC    C22   3267      -0.22     12.011
 12898       HAL2    441   POPC    H2R   3267       0.09      1.008
 12899       HAL2    441   POPC    H2S   3267       0.09      1.008
 12900       CTL2    441   POPC     C3   3268       0.08     12.011
 12901       HAL2    441   POPC     HX   3268       0.09      1.008
 12902       HAL2    441   POPC     HY   3268       0.09      1.008
 12903        OSL    441   POPC    O31   3268      -0.49    15.9994
 12904         CL    441   POPC    C31   3268        0.9     12.011
 12905        OBL    441   POPC    O32   3268      -0.63    15.9994
 12906       CTL2    441   POPC    C32   3268      -0.22     12.011
 12907       HAL2    441   POPC    H2X   3268       0.09      1.008
 12908       HAL2    441   POPC    H2Y   3268       0.09      1.008
 12909       CTL2    441   POPC    C23   3269      -0.18     12.011
 12910       HAL2    441   POPC    H3R   3269       0.09      1.008
 12911       HAL2    441   POPC    H3S   3269       0.09      1.008
 12912       CTL2    441   POPC    C24   3270      -0.18     12.011
 12913       HAL2    441   POPC    H4R   3270       0.09      1.008
 12914       HAL2    441   POPC    H4S   3270       0.09      1.008
 12915       CTL2    441   POPC    C25   3271      -0.18     12.011
 12916       HAL2    441   POPC    H5R   3271       0.09      1.008
 12917       HAL2    441   POPC    H5S   3271       0.09      1.008
 12918       CTL2    441   POPC    C26   3272      -0.18     12.011
 12919       HAL2    441   POPC    H6R   3272       0.09      1.008
 12920       HAL2    441   POPC    H6S   3272       0.09      1.008
 12921       CTL2    441   POPC    C27   3273      -0.18     12.011
 12922       HAL2    441   POPC    H7R   3273       0.09      1.008
 12923       HAL2    441   POPC    H7S   3273       0.09      1.008
 12924       CTL2    441   POPC    C28   3274      -0.18     12.011
 12925       HAL2    441   POPC    H8R   3274       0.09      1.008
 12926       HAL2    441   POPC    H8S   3274       0.09      1.008
 12927       CEL1    441   POPC    C29   3275      -0.15     12.011
 12928       HEL1    441   POPC    H91   3275       0.15      1.008
 12929       CEL1    441   POPC   C210   3276      -0.15     12.011
 12930       HEL1    441   POPC   H101   3276       0.15      1.008
 12931       CTL2    441   POPC   C211   3277      -0.18     12.011
 12932       HAL2    441   POPC   H11R   3277       0.09      1.008
 12933       HAL2    441   POPC   H11S   3277       0.09      1.008
 12934       CTL2    441   POPC   C212   3278      -0.18     12.011
 12935       HAL2    441   POPC   H12R   3278       0.09      1.008
 12936       HAL2    441   POPC   H12S   3278       0.09      1.008
 12937       CTL2    441   POPC   C213   3279      -0.18     12.011
 12938       HAL2    441   POPC   H13R   3279       0.09      1.008
 12939       HAL2    441   POPC   H13S   3279       0.09      1.008
 12940       CTL2    441   POPC   C214   3280      -0.18     12.011
 12941       HAL2    441   POPC   H14R   3280       0.09      1.008
 12942       HAL2    441   POPC   H14S   3280       0.09      1.008
 12943       CTL2    441   POPC   C215   3281      -0.18     12.011
 12944       HAL2    441   POPC   H15R   3281       0.09      1.008
 12945       HAL2    441   POPC   H15S   3281       0.09      1.008
 12946       CTL2    441   POPC   C216   3282      -0.18     12.011
 12947       HAL2    441   POPC   H16R   3282       0.09      1.008
 12948       HAL2    441   POPC   H16S   3282       0.09      1.008
 12949       CTL2    441   POPC   C217   3283      -0.18     12.011
 12950       HAL2    441   POPC   H17R   3283       0.09      1.008
 12951       HAL2    441   POPC   H17S   3283       0.09      1.008
 12952       CTL3    441   POPC   C218   3284      -0.27     12.011
 12953       HAL3    441   POPC   H18R   3284       0.09      1.008
 12954       HAL3    441   POPC   H18S   3284       0.09      1.008
 12955       HAL3    441   POPC   H18T   3284       0.09      1.008
 12956       CTL2    441   POPC    C33   3285      -0.18     12.011
 12957       HAL2    441   POPC    H3X   3285       0.09      1.008
 12958       HAL2    441   POPC    H3Y   3285       0.09      1.008
 12959       CTL2    441   POPC    C34   3286      -0.18     12.011
 12960       HAL2    441   POPC    H4X   3286       0.09      1.008
 12961       HAL2    441   POPC    H4Y   3286       0.09      1.008
 12962       CTL2    441   POPC    C35   3287      -0.18     12.011
 12963       HAL2    441   POPC    H5X   3287       0.09      1.008
 12964       HAL2    441   POPC    H5Y   3287       0.09      1.008
 12965       CTL2    441   POPC    C36   3288      -0.18     12.011
 12966       HAL2    441   POPC    H6X   3288       0.09      1.008
 12967       HAL2    441   POPC    H6Y   3288       0.09      1.008
 12968       CTL2    441   POPC    C37   3289      -0.18     12.011
 12969       HAL2    441   POPC    H7X   3289       0.09      1.008
 12970       HAL2    441   POPC    H7Y   3289       0.09      1.008
 12971       CTL2    441   POPC    C38   3290      -0.18     12.011
 12972       HAL2    441   POPC    H8X   3290       0.09      1.008
 12973       HAL2    441   POPC    H8Y   3290       0.09      1.008
 12974       CTL2    441   POPC    C39   3291      -0.18     12.011
 12975       HAL2    441   POPC    H9X   3291       0.09      1.008
 12976       HAL2    441   POPC    H9Y   3291       0.09      1.008
 12977       CTL2    441   POPC   C310   3292      -0.18     12.011
 12978       HAL2    441   POPC   H10X   3292       0.09      1.008
 12979       HAL2    441   POPC   H10Y   3292       0.09      1.008
 12980       CTL2    441   POPC   C311   3293      -0.18     12.011
 12981       HAL2    441   POPC   H11X   3293       0.09      1.008
 12982       HAL2    441   POPC   H11Y   3293       0.09      1.008
 12983       CTL2    441   POPC   C312   3294      -0.18     12.011
 12984       HAL2    441   POPC   H12X   3294       0.09      1.008
 12985       HAL2    441   POPC   H12Y   3294       0.09      1.008
 12986       CTL2    441   POPC   C313   3295      -0.18     12.011
 12987       HAL2    441   POPC   H13X   3295       0.09      1.008
 12988       HAL2    441   POPC   H13Y   3295       0.09      1.008
 12989       CTL2    441   POPC   C314   3296      -0.18     12.011
 12990       HAL2    441   POPC   H14X   3296       0.09      1.008
 12991       HAL2    441   POPC   H14Y   3296       0.09      1.008
 12992       CTL2    441   POPC   C315   3297      -0.18     12.011
 12993       HAL2    441   POPC   H15X   3297       0.09      1.008
 12994       HAL2    441   POPC   H15Y   3297       0.09      1.008
 12995       CTL3    441   POPC   C316   3298      -0.27     12.011
 12996       HAL3    441   POPC   H16X   3298       0.09      1.008
 12997       HAL3    441   POPC   H16Y   3298       0.09      1.008
 12998       HAL3    441   POPC   H16Z   3298       0.09      1.008   ; qtot 0
; residue 442 POPC rtp POPC q  0.0
 12999        NTL    442   POPC      N   3299       -0.6     14.007
 13000       CTL2    442   POPC    C12   3299       -0.1     12.011
 13001         HL    442   POPC   H12A   3299       0.25      1.008
 13002         HL    442   POPC   H12B   3299       0.25      1.008
 13003       CTL5    442   POPC    C13   3299      -0.35     12.011
 13004         HL    442   POPC   H13A   3299       0.25      1.008
 13005         HL    442   POPC   H13B   3299       0.25      1.008
 13006         HL    442   POPC   H13C   3299       0.25      1.008
 13007       CTL5    442   POPC    C14   3299      -0.35     12.011
 13008         HL    442   POPC   H14A   3299       0.25      1.008
 13009         HL    442   POPC   H14B   3299       0.25      1.008
 13010         HL    442   POPC   H14C   3299       0.25      1.008
 13011       CTL5    442   POPC    C15   3299      -0.35     12.011
 13012         HL    442   POPC   H15A   3299       0.25      1.008
 13013         HL    442   POPC   H15B   3299       0.25      1.008
 13014         HL    442   POPC   H15C   3299       0.25      1.008
 13015       CTL2    442   POPC    C11   3300      -0.08     12.011
 13016       HAL2    442   POPC   H11A   3300       0.09      1.008
 13017       HAL2    442   POPC   H11B   3300       0.09      1.008
 13018         PL    442   POPC      P   3300        1.5     30.974
 13019        O2L    442   POPC    O13   3300      -0.78    15.9994
 13020        O2L    442   POPC    O14   3300      -0.78    15.9994
 13021       OSLP    442   POPC    O12   3300      -0.57    15.9994
 13022       OSLP    442   POPC    O11   3300      -0.57    15.9994
 13023       CTL2    442   POPC     C1   3300      -0.08     12.011
 13024       HAL2    442   POPC     HA   3300       0.09      1.008
 13025       HAL2    442   POPC     HB   3300       0.09      1.008
 13026       CTL1    442   POPC     C2   3301       0.17     12.011
 13027       HAL1    442   POPC     HS   3301       0.09      1.008
 13028        OSL    442   POPC    O21   3301      -0.49    15.9994
 13029         CL    442   POPC    C21   3301        0.9     12.011
 13030        OBL    442   POPC    O22   3301      -0.63    15.9994
 13031       CTL2    442   POPC    C22   3301      -0.22     12.011
 13032       HAL2    442   POPC    H2R   3301       0.09      1.008
 13033       HAL2    442   POPC    H2S   3301       0.09      1.008
 13034       CTL2    442   POPC     C3   3302       0.08     12.011
 13035       HAL2    442   POPC     HX   3302       0.09      1.008
 13036       HAL2    442   POPC     HY   3302       0.09      1.008
 13037        OSL    442   POPC    O31   3302      -0.49    15.9994
 13038         CL    442   POPC    C31   3302        0.9     12.011
 13039        OBL    442   POPC    O32   3302      -0.63    15.9994
 13040       CTL2    442   POPC    C32   3302      -0.22     12.011
 13041       HAL2    442   POPC    H2X   3302       0.09      1.008
 13042       HAL2    442   POPC    H2Y   3302       0.09      1.008
 13043       CTL2    442   POPC    C23   3303      -0.18     12.011
 13044       HAL2    442   POPC    H3R   3303       0.09      1.008
 13045       HAL2    442   POPC    H3S   3303       0.09      1.008
 13046       CTL2    442   POPC    C24   3304      -0.18     12.011
 13047       HAL2    442   POPC    H4R   3304       0.09      1.008
 13048       HAL2    442   POPC    H4S   3304       0.09      1.008
 13049       CTL2    442   POPC    C25   3305      -0.18     12.011
 13050       HAL2    442   POPC    H5R   3305       0.09      1.008
 13051       HAL2    442   POPC    H5S   3305       0.09      1.008
 13052       CTL2    442   POPC    C26   3306      -0.18     12.011
 13053       HAL2    442   POPC    H6R   3306       0.09      1.008
 13054       HAL2    442   POPC    H6S   3306       0.09      1.008
 13055       CTL2    442   POPC    C27   3307      -0.18     12.011
 13056       HAL2    442   POPC    H7R   3307       0.09      1.008
 13057       HAL2    442   POPC    H7S   3307       0.09      1.008
 13058       CTL2    442   POPC    C28   3308      -0.18     12.011
 13059       HAL2    442   POPC    H8R   3308       0.09      1.008
 13060       HAL2    442   POPC    H8S   3308       0.09      1.008
 13061       CEL1    442   POPC    C29   3309      -0.15     12.011
 13062       HEL1    442   POPC    H91   3309       0.15      1.008
 13063       CEL1    442   POPC   C210   3310      -0.15     12.011
 13064       HEL1    442   POPC   H101   3310       0.15      1.008
 13065       CTL2    442   POPC   C211   3311      -0.18     12.011
 13066       HAL2    442   POPC   H11R   3311       0.09      1.008
 13067       HAL2    442   POPC   H11S   3311       0.09      1.008
 13068       CTL2    442   POPC   C212   3312      -0.18     12.011
 13069       HAL2    442   POPC   H12R   3312       0.09      1.008
 13070       HAL2    442   POPC   H12S   3312       0.09      1.008
 13071       CTL2    442   POPC   C213   3313      -0.18     12.011
 13072       HAL2    442   POPC   H13R   3313       0.09      1.008
 13073       HAL2    442   POPC   H13S   3313       0.09      1.008
 13074       CTL2    442   POPC   C214   3314      -0.18     12.011
 13075       HAL2    442   POPC   H14R   3314       0.09      1.008
 13076       HAL2    442   POPC   H14S   3314       0.09      1.008
 13077       CTL2    442   POPC   C215   3315      -0.18     12.011
 13078       HAL2    442   POPC   H15R   3315       0.09      1.008
 13079       HAL2    442   POPC   H15S   3315       0.09      1.008
 13080       CTL2    442   POPC   C216   3316      -0.18     12.011
 13081       HAL2    442   POPC   H16R   3316       0.09      1.008
 13082       HAL2    442   POPC   H16S   3316       0.09      1.008
 13083       CTL2    442   POPC   C217   3317      -0.18     12.011
 13084       HAL2    442   POPC   H17R   3317       0.09      1.008
 13085       HAL2    442   POPC   H17S   3317       0.09      1.008
 13086       CTL3    442   POPC   C218   3318      -0.27     12.011
 13087       HAL3    442   POPC   H18R   3318       0.09      1.008
 13088       HAL3    442   POPC   H18S   3318       0.09      1.008
 13089       HAL3    442   POPC   H18T   3318       0.09      1.008
 13090       CTL2    442   POPC    C33   3319      -0.18     12.011
 13091       HAL2    442   POPC    H3X   3319       0.09      1.008
 13092       HAL2    442   POPC    H3Y   3319       0.09      1.008
 13093       CTL2    442   POPC    C34   3320      -0.18     12.011
 13094       HAL2    442   POPC    H4X   3320       0.09      1.008
 13095       HAL2    442   POPC    H4Y   3320       0.09      1.008
 13096       CTL2    442   POPC    C35   3321      -0.18     12.011
 13097       HAL2    442   POPC    H5X   3321       0.09      1.008
 13098       HAL2    442   POPC    H5Y   3321       0.09      1.008
 13099       CTL2    442   POPC    C36   3322      -0.18     12.011
 13100       HAL2    442   POPC    H6X   3322       0.09      1.008
 13101       HAL2    442   POPC    H6Y   3322       0.09      1.008
 13102       CTL2    442   POPC    C37   3323      -0.18     12.011
 13103       HAL2    442   POPC    H7X   3323       0.09      1.008
 13104       HAL2    442   POPC    H7Y   3323       0.09      1.008
 13105       CTL2    442   POPC    C38   3324      -0.18     12.011
 13106       HAL2    442   POPC    H8X   3324       0.09      1.008
 13107       HAL2    442   POPC    H8Y   3324       0.09      1.008
 13108       CTL2    442   POPC    C39   3325      -0.18     12.011
 13109       HAL2    442   POPC    H9X   3325       0.09      1.008
 13110       HAL2    442   POPC    H9Y   3325       0.09      1.008
 13111       CTL2    442   POPC   C310   3326      -0.18     12.011
 13112       HAL2    442   POPC   H10X   3326       0.09      1.008
 13113       HAL2    442   POPC   H10Y   3326       0.09      1.008
 13114       CTL2    442   POPC   C311   3327      -0.18     12.011
 13115       HAL2    442   POPC   H11X   3327       0.09      1.008
 13116       HAL2    442   POPC   H11Y   3327       0.09      1.008
 13117       CTL2    442   POPC   C312   3328      -0.18     12.011
 13118       HAL2    442   POPC   H12X   3328       0.09      1.008
 13119       HAL2    442   POPC   H12Y   3328       0.09      1.008
 13120       CTL2    442   POPC   C313   3329      -0.18     12.011
 13121       HAL2    442   POPC   H13X   3329       0.09      1.008
 13122       HAL2    442   POPC   H13Y   3329       0.09      1.008
 13123       CTL2    442   POPC   C314   3330      -0.18     12.011
 13124       HAL2    442   POPC   H14X   3330       0.09      1.008
 13125       HAL2    442   POPC   H14Y   3330       0.09      1.008
 13126       CTL2    442   POPC   C315   3331      -0.18     12.011
 13127       HAL2    442   POPC   H15X   3331       0.09      1.008
 13128       HAL2    442   POPC   H15Y   3331       0.09      1.008
 13129       CTL3    442   POPC   C316   3332      -0.27     12.011
 13130       HAL3    442   POPC   H16X   3332       0.09      1.008
 13131       HAL3    442   POPC   H16Y   3332       0.09      1.008
 13132       HAL3    442   POPC   H16Z   3332       0.09      1.008   ; qtot 0
; residue 443 POPC rtp POPC q  0.0
 13133        NTL    443   POPC      N   3333       -0.6     14.007
 13134       CTL2    443   POPC    C12   3333       -0.1     12.011
 13135         HL    443   POPC   H12A   3333       0.25      1.008
 13136         HL    443   POPC   H12B   3333       0.25      1.008
 13137       CTL5    443   POPC    C13   3333      -0.35     12.011
 13138         HL    443   POPC   H13A   3333       0.25      1.008
 13139         HL    443   POPC   H13B   3333       0.25      1.008
 13140         HL    443   POPC   H13C   3333       0.25      1.008
 13141       CTL5    443   POPC    C14   3333      -0.35     12.011
 13142         HL    443   POPC   H14A   3333       0.25      1.008
 13143         HL    443   POPC   H14B   3333       0.25      1.008
 13144         HL    443   POPC   H14C   3333       0.25      1.008
 13145       CTL5    443   POPC    C15   3333      -0.35     12.011
 13146         HL    443   POPC   H15A   3333       0.25      1.008
 13147         HL    443   POPC   H15B   3333       0.25      1.008
 13148         HL    443   POPC   H15C   3333       0.25      1.008
 13149       CTL2    443   POPC    C11   3334      -0.08     12.011
 13150       HAL2    443   POPC   H11A   3334       0.09      1.008
 13151       HAL2    443   POPC   H11B   3334       0.09      1.008
 13152         PL    443   POPC      P   3334        1.5     30.974
 13153        O2L    443   POPC    O13   3334      -0.78    15.9994
 13154        O2L    443   POPC    O14   3334      -0.78    15.9994
 13155       OSLP    443   POPC    O12   3334      -0.57    15.9994
 13156       OSLP    443   POPC    O11   3334      -0.57    15.9994
 13157       CTL2    443   POPC     C1   3334      -0.08     12.011
 13158       HAL2    443   POPC     HA   3334       0.09      1.008
 13159       HAL2    443   POPC     HB   3334       0.09      1.008
 13160       CTL1    443   POPC     C2   3335       0.17     12.011
 13161       HAL1    443   POPC     HS   3335       0.09      1.008
 13162        OSL    443   POPC    O21   3335      -0.49    15.9994
 13163         CL    443   POPC    C21   3335        0.9     12.011
 13164        OBL    443   POPC    O22   3335      -0.63    15.9994
 13165       CTL2    443   POPC    C22   3335      -0.22     12.011
 13166       HAL2    443   POPC    H2R   3335       0.09      1.008
 13167       HAL2    443   POPC    H2S   3335       0.09      1.008
 13168       CTL2    443   POPC     C3   3336       0.08     12.011
 13169       HAL2    443   POPC     HX   3336       0.09      1.008
 13170       HAL2    443   POPC     HY   3336       0.09      1.008
 13171        OSL    443   POPC    O31   3336      -0.49    15.9994
 13172         CL    443   POPC    C31   3336        0.9     12.011
 13173        OBL    443   POPC    O32   3336      -0.63    15.9994
 13174       CTL2    443   POPC    C32   3336      -0.22     12.011
 13175       HAL2    443   POPC    H2X   3336       0.09      1.008
 13176       HAL2    443   POPC    H2Y   3336       0.09      1.008
 13177       CTL2    443   POPC    C23   3337      -0.18     12.011
 13178       HAL2    443   POPC    H3R   3337       0.09      1.008
 13179       HAL2    443   POPC    H3S   3337       0.09      1.008
 13180       CTL2    443   POPC    C24   3338      -0.18     12.011
 13181       HAL2    443   POPC    H4R   3338       0.09      1.008
 13182       HAL2    443   POPC    H4S   3338       0.09      1.008
 13183       CTL2    443   POPC    C25   3339      -0.18     12.011
 13184       HAL2    443   POPC    H5R   3339       0.09      1.008
 13185       HAL2    443   POPC    H5S   3339       0.09      1.008
 13186       CTL2    443   POPC    C26   3340      -0.18     12.011
 13187       HAL2    443   POPC    H6R   3340       0.09      1.008
 13188       HAL2    443   POPC    H6S   3340       0.09      1.008
 13189       CTL2    443   POPC    C27   3341      -0.18     12.011
 13190       HAL2    443   POPC    H7R   3341       0.09      1.008
 13191       HAL2    443   POPC    H7S   3341       0.09      1.008
 13192       CTL2    443   POPC    C28   3342      -0.18     12.011
 13193       HAL2    443   POPC    H8R   3342       0.09      1.008
 13194       HAL2    443   POPC    H8S   3342       0.09      1.008
 13195       CEL1    443   POPC    C29   3343      -0.15     12.011
 13196       HEL1    443   POPC    H91   3343       0.15      1.008
 13197       CEL1    443   POPC   C210   3344      -0.15     12.011
 13198       HEL1    443   POPC   H101   3344       0.15      1.008
 13199       CTL2    443   POPC   C211   3345      -0.18     12.011
 13200       HAL2    443   POPC   H11R   3345       0.09      1.008
 13201       HAL2    443   POPC   H11S   3345       0.09      1.008
 13202       CTL2    443   POPC   C212   3346      -0.18     12.011
 13203       HAL2    443   POPC   H12R   3346       0.09      1.008
 13204       HAL2    443   POPC   H12S   3346       0.09      1.008
 13205       CTL2    443   POPC   C213   3347      -0.18     12.011
 13206       HAL2    443   POPC   H13R   3347       0.09      1.008
 13207       HAL2    443   POPC   H13S   3347       0.09      1.008
 13208       CTL2    443   POPC   C214   3348      -0.18     12.011
 13209       HAL2    443   POPC   H14R   3348       0.09      1.008
 13210       HAL2    443   POPC   H14S   3348       0.09      1.008
 13211       CTL2    443   POPC   C215   3349      -0.18     12.011
 13212       HAL2    443   POPC   H15R   3349       0.09      1.008
 13213       HAL2    443   POPC   H15S   3349       0.09      1.008
 13214       CTL2    443   POPC   C216   3350      -0.18     12.011
 13215       HAL2    443   POPC   H16R   3350       0.09      1.008
 13216       HAL2    443   POPC   H16S   3350       0.09      1.008
 13217       CTL2    443   POPC   C217   3351      -0.18     12.011
 13218       HAL2    443   POPC   H17R   3351       0.09      1.008
 13219       HAL2    443   POPC   H17S   3351       0.09      1.008
 13220       CTL3    443   POPC   C218   3352      -0.27     12.011
 13221       HAL3    443   POPC   H18R   3352       0.09      1.008
 13222       HAL3    443   POPC   H18S   3352       0.09      1.008
 13223       HAL3    443   POPC   H18T   3352       0.09      1.008
 13224       CTL2    443   POPC    C33   3353      -0.18     12.011
 13225       HAL2    443   POPC    H3X   3353       0.09      1.008
 13226       HAL2    443   POPC    H3Y   3353       0.09      1.008
 13227       CTL2    443   POPC    C34   3354      -0.18     12.011
 13228       HAL2    443   POPC    H4X   3354       0.09      1.008
 13229       HAL2    443   POPC    H4Y   3354       0.09      1.008
 13230       CTL2    443   POPC    C35   3355      -0.18     12.011
 13231       HAL2    443   POPC    H5X   3355       0.09      1.008
 13232       HAL2    443   POPC    H5Y   3355       0.09      1.008
 13233       CTL2    443   POPC    C36   3356      -0.18     12.011
 13234       HAL2    443   POPC    H6X   3356       0.09      1.008
 13235       HAL2    443   POPC    H6Y   3356       0.09      1.008
 13236       CTL2    443   POPC    C37   3357      -0.18     12.011
 13237       HAL2    443   POPC    H7X   3357       0.09      1.008
 13238       HAL2    443   POPC    H7Y   3357       0.09      1.008
 13239       CTL2    443   POPC    C38   3358      -0.18     12.011
 13240       HAL2    443   POPC    H8X   3358       0.09      1.008
 13241       HAL2    443   POPC    H8Y   3358       0.09      1.008
 13242       CTL2    443   POPC    C39   3359      -0.18     12.011
 13243       HAL2    443   POPC    H9X   3359       0.09      1.008
 13244       HAL2    443   POPC    H9Y   3359       0.09      1.008
 13245       CTL2    443   POPC   C310   3360      -0.18     12.011
 13246       HAL2    443   POPC   H10X   3360       0.09      1.008
 13247       HAL2    443   POPC   H10Y   3360       0.09      1.008
 13248       CTL2    443   POPC   C311   3361      -0.18     12.011
 13249       HAL2    443   POPC   H11X   3361       0.09      1.008
 13250       HAL2    443   POPC   H11Y   3361       0.09      1.008
 13251       CTL2    443   POPC   C312   3362      -0.18     12.011
 13252       HAL2    443   POPC   H12X   3362       0.09      1.008
 13253       HAL2    443   POPC   H12Y   3362       0.09      1.008
 13254       CTL2    443   POPC   C313   3363      -0.18     12.011
 13255       HAL2    443   POPC   H13X   3363       0.09      1.008
 13256       HAL2    443   POPC   H13Y   3363       0.09      1.008
 13257       CTL2    443   POPC   C314   3364      -0.18     12.011
 13258       HAL2    443   POPC   H14X   3364       0.09      1.008
 13259       HAL2    443   POPC   H14Y   3364       0.09      1.008
 13260       CTL2    443   POPC   C315   3365      -0.18     12.011
 13261       HAL2    443   POPC   H15X   3365       0.09      1.008
 13262       HAL2    443   POPC   H15Y   3365       0.09      1.008
 13263       CTL3    443   POPC   C316   3366      -0.27     12.011
 13264       HAL3    443   POPC   H16X   3366       0.09      1.008
 13265       HAL3    443   POPC   H16Y   3366       0.09      1.008
 13266       HAL3    443   POPC   H16Z   3366       0.09      1.008   ; qtot 0
; residue 444 POPC rtp POPC q  0.0
 13267        NTL    444   POPC      N   3367       -0.6     14.007
 13268       CTL2    444   POPC    C12   3367       -0.1     12.011
 13269         HL    444   POPC   H12A   3367       0.25      1.008
 13270         HL    444   POPC   H12B   3367       0.25      1.008
 13271       CTL5    444   POPC    C13   3367      -0.35     12.011
 13272         HL    444   POPC   H13A   3367       0.25      1.008
 13273         HL    444   POPC   H13B   3367       0.25      1.008
 13274         HL    444   POPC   H13C   3367       0.25      1.008
 13275       CTL5    444   POPC    C14   3367      -0.35     12.011
 13276         HL    444   POPC   H14A   3367       0.25      1.008
 13277         HL    444   POPC   H14B   3367       0.25      1.008
 13278         HL    444   POPC   H14C   3367       0.25      1.008
 13279       CTL5    444   POPC    C15   3367      -0.35     12.011
 13280         HL    444   POPC   H15A   3367       0.25      1.008
 13281         HL    444   POPC   H15B   3367       0.25      1.008
 13282         HL    444   POPC   H15C   3367       0.25      1.008
 13283       CTL2    444   POPC    C11   3368      -0.08     12.011
 13284       HAL2    444   POPC   H11A   3368       0.09      1.008
 13285       HAL2    444   POPC   H11B   3368       0.09      1.008
 13286         PL    444   POPC      P   3368        1.5     30.974
 13287        O2L    444   POPC    O13   3368      -0.78    15.9994
 13288        O2L    444   POPC    O14   3368      -0.78    15.9994
 13289       OSLP    444   POPC    O12   3368      -0.57    15.9994
 13290       OSLP    444   POPC    O11   3368      -0.57    15.9994
 13291       CTL2    444   POPC     C1   3368      -0.08     12.011
 13292       HAL2    444   POPC     HA   3368       0.09      1.008
 13293       HAL2    444   POPC     HB   3368       0.09      1.008
 13294       CTL1    444   POPC     C2   3369       0.17     12.011
 13295       HAL1    444   POPC     HS   3369       0.09      1.008
 13296        OSL    444   POPC    O21   3369      -0.49    15.9994
 13297         CL    444   POPC    C21   3369        0.9     12.011
 13298        OBL    444   POPC    O22   3369      -0.63    15.9994
 13299       CTL2    444   POPC    C22   3369      -0.22     12.011
 13300       HAL2    444   POPC    H2R   3369       0.09      1.008
 13301       HAL2    444   POPC    H2S   3369       0.09      1.008
 13302       CTL2    444   POPC     C3   3370       0.08     12.011
 13303       HAL2    444   POPC     HX   3370       0.09      1.008
 13304       HAL2    444   POPC     HY   3370       0.09      1.008
 13305        OSL    444   POPC    O31   3370      -0.49    15.9994
 13306         CL    444   POPC    C31   3370        0.9     12.011
 13307        OBL    444   POPC    O32   3370      -0.63    15.9994
 13308       CTL2    444   POPC    C32   3370      -0.22     12.011
 13309       HAL2    444   POPC    H2X   3370       0.09      1.008
 13310       HAL2    444   POPC    H2Y   3370       0.09      1.008
 13311       CTL2    444   POPC    C23   3371      -0.18     12.011
 13312       HAL2    444   POPC    H3R   3371       0.09      1.008
 13313       HAL2    444   POPC    H3S   3371       0.09      1.008
 13314       CTL2    444   POPC    C24   3372      -0.18     12.011
 13315       HAL2    444   POPC    H4R   3372       0.09      1.008
 13316       HAL2    444   POPC    H4S   3372       0.09      1.008
 13317       CTL2    444   POPC    C25   3373      -0.18     12.011
 13318       HAL2    444   POPC    H5R   3373       0.09      1.008
 13319       HAL2    444   POPC    H5S   3373       0.09      1.008
 13320       CTL2    444   POPC    C26   3374      -0.18     12.011
 13321       HAL2    444   POPC    H6R   3374       0.09      1.008
 13322       HAL2    444   POPC    H6S   3374       0.09      1.008
 13323       CTL2    444   POPC    C27   3375      -0.18     12.011
 13324       HAL2    444   POPC    H7R   3375       0.09      1.008
 13325       HAL2    444   POPC    H7S   3375       0.09      1.008
 13326       CTL2    444   POPC    C28   3376      -0.18     12.011
 13327       HAL2    444   POPC    H8R   3376       0.09      1.008
 13328       HAL2    444   POPC    H8S   3376       0.09      1.008
 13329       CEL1    444   POPC    C29   3377      -0.15     12.011
 13330       HEL1    444   POPC    H91   3377       0.15      1.008
 13331       CEL1    444   POPC   C210   3378      -0.15     12.011
 13332       HEL1    444   POPC   H101   3378       0.15      1.008
 13333       CTL2    444   POPC   C211   3379      -0.18     12.011
 13334       HAL2    444   POPC   H11R   3379       0.09      1.008
 13335       HAL2    444   POPC   H11S   3379       0.09      1.008
 13336       CTL2    444   POPC   C212   3380      -0.18     12.011
 13337       HAL2    444   POPC   H12R   3380       0.09      1.008
 13338       HAL2    444   POPC   H12S   3380       0.09      1.008
 13339       CTL2    444   POPC   C213   3381      -0.18     12.011
 13340       HAL2    444   POPC   H13R   3381       0.09      1.008
 13341       HAL2    444   POPC   H13S   3381       0.09      1.008
 13342       CTL2    444   POPC   C214   3382      -0.18     12.011
 13343       HAL2    444   POPC   H14R   3382       0.09      1.008
 13344       HAL2    444   POPC   H14S   3382       0.09      1.008
 13345       CTL2    444   POPC   C215   3383      -0.18     12.011
 13346       HAL2    444   POPC   H15R   3383       0.09      1.008
 13347       HAL2    444   POPC   H15S   3383       0.09      1.008
 13348       CTL2    444   POPC   C216   3384      -0.18     12.011
 13349       HAL2    444   POPC   H16R   3384       0.09      1.008
 13350       HAL2    444   POPC   H16S   3384       0.09      1.008
 13351       CTL2    444   POPC   C217   3385      -0.18     12.011
 13352       HAL2    444   POPC   H17R   3385       0.09      1.008
 13353       HAL2    444   POPC   H17S   3385       0.09      1.008
 13354       CTL3    444   POPC   C218   3386      -0.27     12.011
 13355       HAL3    444   POPC   H18R   3386       0.09      1.008
 13356       HAL3    444   POPC   H18S   3386       0.09      1.008
 13357       HAL3    444   POPC   H18T   3386       0.09      1.008
 13358       CTL2    444   POPC    C33   3387      -0.18     12.011
 13359       HAL2    444   POPC    H3X   3387       0.09      1.008
 13360       HAL2    444   POPC    H3Y   3387       0.09      1.008
 13361       CTL2    444   POPC    C34   3388      -0.18     12.011
 13362       HAL2    444   POPC    H4X   3388       0.09      1.008
 13363       HAL2    444   POPC    H4Y   3388       0.09      1.008
 13364       CTL2    444   POPC    C35   3389      -0.18     12.011
 13365       HAL2    444   POPC    H5X   3389       0.09      1.008
 13366       HAL2    444   POPC    H5Y   3389       0.09      1.008
 13367       CTL2    444   POPC    C36   3390      -0.18     12.011
 13368       HAL2    444   POPC    H6X   3390       0.09      1.008
 13369       HAL2    444   POPC    H6Y   3390       0.09      1.008
 13370       CTL2    444   POPC    C37   3391      -0.18     12.011
 13371       HAL2    444   POPC    H7X   3391       0.09      1.008
 13372       HAL2    444   POPC    H7Y   3391       0.09      1.008
 13373       CTL2    444   POPC    C38   3392      -0.18     12.011
 13374       HAL2    444   POPC    H8X   3392       0.09      1.008
 13375       HAL2    444   POPC    H8Y   3392       0.09      1.008
 13376       CTL2    444   POPC    C39   3393      -0.18     12.011
 13377       HAL2    444   POPC    H9X   3393       0.09      1.008
 13378       HAL2    444   POPC    H9Y   3393       0.09      1.008
 13379       CTL2    444   POPC   C310   3394      -0.18     12.011
 13380       HAL2    444   POPC   H10X   3394       0.09      1.008
 13381       HAL2    444   POPC   H10Y   3394       0.09      1.008
 13382       CTL2    444   POPC   C311   3395      -0.18     12.011
 13383       HAL2    444   POPC   H11X   3395       0.09      1.008
 13384       HAL2    444   POPC   H11Y   3395       0.09      1.008
 13385       CTL2    444   POPC   C312   3396      -0.18     12.011
 13386       HAL2    444   POPC   H12X   3396       0.09      1.008
 13387       HAL2    444   POPC   H12Y   3396       0.09      1.008
 13388       CTL2    444   POPC   C313   3397      -0.18     12.011
 13389       HAL2    444   POPC   H13X   3397       0.09      1.008
 13390       HAL2    444   POPC   H13Y   3397       0.09      1.008
 13391       CTL2    444   POPC   C314   3398      -0.18     12.011
 13392       HAL2    444   POPC   H14X   3398       0.09      1.008
 13393       HAL2    444   POPC   H14Y   3398       0.09      1.008
 13394       CTL2    444   POPC   C315   3399      -0.18     12.011
 13395       HAL2    444   POPC   H15X   3399       0.09      1.008
 13396       HAL2    444   POPC   H15Y   3399       0.09      1.008
 13397       CTL3    444   POPC   C316   3400      -0.27     12.011
 13398       HAL3    444   POPC   H16X   3400       0.09      1.008
 13399       HAL3    444   POPC   H16Y   3400       0.09      1.008
 13400       HAL3    444   POPC   H16Z   3400       0.09      1.008   ; qtot 0
; residue 445 POPC rtp POPC q  0.0
 13401        NTL    445   POPC      N   3401       -0.6     14.007
 13402       CTL2    445   POPC    C12   3401       -0.1     12.011
 13403         HL    445   POPC   H12A   3401       0.25      1.008
 13404         HL    445   POPC   H12B   3401       0.25      1.008
 13405       CTL5    445   POPC    C13   3401      -0.35     12.011
 13406         HL    445   POPC   H13A   3401       0.25      1.008
 13407         HL    445   POPC   H13B   3401       0.25      1.008
 13408         HL    445   POPC   H13C   3401       0.25      1.008
 13409       CTL5    445   POPC    C14   3401      -0.35     12.011
 13410         HL    445   POPC   H14A   3401       0.25      1.008
 13411         HL    445   POPC   H14B   3401       0.25      1.008
 13412         HL    445   POPC   H14C   3401       0.25      1.008
 13413       CTL5    445   POPC    C15   3401      -0.35     12.011
 13414         HL    445   POPC   H15A   3401       0.25      1.008
 13415         HL    445   POPC   H15B   3401       0.25      1.008
 13416         HL    445   POPC   H15C   3401       0.25      1.008
 13417       CTL2    445   POPC    C11   3402      -0.08     12.011
 13418       HAL2    445   POPC   H11A   3402       0.09      1.008
 13419       HAL2    445   POPC   H11B   3402       0.09      1.008
 13420         PL    445   POPC      P   3402        1.5     30.974
 13421        O2L    445   POPC    O13   3402      -0.78    15.9994
 13422        O2L    445   POPC    O14   3402      -0.78    15.9994
 13423       OSLP    445   POPC    O12   3402      -0.57    15.9994
 13424       OSLP    445   POPC    O11   3402      -0.57    15.9994
 13425       CTL2    445   POPC     C1   3402      -0.08     12.011
 13426       HAL2    445   POPC     HA   3402       0.09      1.008
 13427       HAL2    445   POPC     HB   3402       0.09      1.008
 13428       CTL1    445   POPC     C2   3403       0.17     12.011
 13429       HAL1    445   POPC     HS   3403       0.09      1.008
 13430        OSL    445   POPC    O21   3403      -0.49    15.9994
 13431         CL    445   POPC    C21   3403        0.9     12.011
 13432        OBL    445   POPC    O22   3403      -0.63    15.9994
 13433       CTL2    445   POPC    C22   3403      -0.22     12.011
 13434       HAL2    445   POPC    H2R   3403       0.09      1.008
 13435       HAL2    445   POPC    H2S   3403       0.09      1.008
 13436       CTL2    445   POPC     C3   3404       0.08     12.011
 13437       HAL2    445   POPC     HX   3404       0.09      1.008
 13438       HAL2    445   POPC     HY   3404       0.09      1.008
 13439        OSL    445   POPC    O31   3404      -0.49    15.9994
 13440         CL    445   POPC    C31   3404        0.9     12.011
 13441        OBL    445   POPC    O32   3404      -0.63    15.9994
 13442       CTL2    445   POPC    C32   3404      -0.22     12.011
 13443       HAL2    445   POPC    H2X   3404       0.09      1.008
 13444       HAL2    445   POPC    H2Y   3404       0.09      1.008
 13445       CTL2    445   POPC    C23   3405      -0.18     12.011
 13446       HAL2    445   POPC    H3R   3405       0.09      1.008
 13447       HAL2    445   POPC    H3S   3405       0.09      1.008
 13448       CTL2    445   POPC    C24   3406      -0.18     12.011
 13449       HAL2    445   POPC    H4R   3406       0.09      1.008
 13450       HAL2    445   POPC    H4S   3406       0.09      1.008
 13451       CTL2    445   POPC    C25   3407      -0.18     12.011
 13452       HAL2    445   POPC    H5R   3407       0.09      1.008
 13453       HAL2    445   POPC    H5S   3407       0.09      1.008
 13454       CTL2    445   POPC    C26   3408      -0.18     12.011
 13455       HAL2    445   POPC    H6R   3408       0.09      1.008
 13456       HAL2    445   POPC    H6S   3408       0.09      1.008
 13457       CTL2    445   POPC    C27   3409      -0.18     12.011
 13458       HAL2    445   POPC    H7R   3409       0.09      1.008
 13459       HAL2    445   POPC    H7S   3409       0.09      1.008
 13460       CTL2    445   POPC    C28   3410      -0.18     12.011
 13461       HAL2    445   POPC    H8R   3410       0.09      1.008
 13462       HAL2    445   POPC    H8S   3410       0.09      1.008
 13463       CEL1    445   POPC    C29   3411      -0.15     12.011
 13464       HEL1    445   POPC    H91   3411       0.15      1.008
 13465       CEL1    445   POPC   C210   3412      -0.15     12.011
 13466       HEL1    445   POPC   H101   3412       0.15      1.008
 13467       CTL2    445   POPC   C211   3413      -0.18     12.011
 13468       HAL2    445   POPC   H11R   3413       0.09      1.008
 13469       HAL2    445   POPC   H11S   3413       0.09      1.008
 13470       CTL2    445   POPC   C212   3414      -0.18     12.011
 13471       HAL2    445   POPC   H12R   3414       0.09      1.008
 13472       HAL2    445   POPC   H12S   3414       0.09      1.008
 13473       CTL2    445   POPC   C213   3415      -0.18     12.011
 13474       HAL2    445   POPC   H13R   3415       0.09      1.008
 13475       HAL2    445   POPC   H13S   3415       0.09      1.008
 13476       CTL2    445   POPC   C214   3416      -0.18     12.011
 13477       HAL2    445   POPC   H14R   3416       0.09      1.008
 13478       HAL2    445   POPC   H14S   3416       0.09      1.008
 13479       CTL2    445   POPC   C215   3417      -0.18     12.011
 13480       HAL2    445   POPC   H15R   3417       0.09      1.008
 13481       HAL2    445   POPC   H15S   3417       0.09      1.008
 13482       CTL2    445   POPC   C216   3418      -0.18     12.011
 13483       HAL2    445   POPC   H16R   3418       0.09      1.008
 13484       HAL2    445   POPC   H16S   3418       0.09      1.008
 13485       CTL2    445   POPC   C217   3419      -0.18     12.011
 13486       HAL2    445   POPC   H17R   3419       0.09      1.008
 13487       HAL2    445   POPC   H17S   3419       0.09      1.008
 13488       CTL3    445   POPC   C218   3420      -0.27     12.011
 13489       HAL3    445   POPC   H18R   3420       0.09      1.008
 13490       HAL3    445   POPC   H18S   3420       0.09      1.008
 13491       HAL3    445   POPC   H18T   3420       0.09      1.008
 13492       CTL2    445   POPC    C33   3421      -0.18     12.011
 13493       HAL2    445   POPC    H3X   3421       0.09      1.008
 13494       HAL2    445   POPC    H3Y   3421       0.09      1.008
 13495       CTL2    445   POPC    C34   3422      -0.18     12.011
 13496       HAL2    445   POPC    H4X   3422       0.09      1.008
 13497       HAL2    445   POPC    H4Y   3422       0.09      1.008
 13498       CTL2    445   POPC    C35   3423      -0.18     12.011
 13499       HAL2    445   POPC    H5X   3423       0.09      1.008
 13500       HAL2    445   POPC    H5Y   3423       0.09      1.008
 13501       CTL2    445   POPC    C36   3424      -0.18     12.011
 13502       HAL2    445   POPC    H6X   3424       0.09      1.008
 13503       HAL2    445   POPC    H6Y   3424       0.09      1.008
 13504       CTL2    445   POPC    C37   3425      -0.18     12.011
 13505       HAL2    445   POPC    H7X   3425       0.09      1.008
 13506       HAL2    445   POPC    H7Y   3425       0.09      1.008
 13507       CTL2    445   POPC    C38   3426      -0.18     12.011
 13508       HAL2    445   POPC    H8X   3426       0.09      1.008
 13509       HAL2    445   POPC    H8Y   3426       0.09      1.008
 13510       CTL2    445   POPC    C39   3427      -0.18     12.011
 13511       HAL2    445   POPC    H9X   3427       0.09      1.008
 13512       HAL2    445   POPC    H9Y   3427       0.09      1.008
 13513       CTL2    445   POPC   C310   3428      -0.18     12.011
 13514       HAL2    445   POPC   H10X   3428       0.09      1.008
 13515       HAL2    445   POPC   H10Y   3428       0.09      1.008
 13516       CTL2    445   POPC   C311   3429      -0.18     12.011
 13517       HAL2    445   POPC   H11X   3429       0.09      1.008
 13518       HAL2    445   POPC   H11Y   3429       0.09      1.008
 13519       CTL2    445   POPC   C312   3430      -0.18     12.011
 13520       HAL2    445   POPC   H12X   3430       0.09      1.008
 13521       HAL2    445   POPC   H12Y   3430       0.09      1.008
 13522       CTL2    445   POPC   C313   3431      -0.18     12.011
 13523       HAL2    445   POPC   H13X   3431       0.09      1.008
 13524       HAL2    445   POPC   H13Y   3431       0.09      1.008
 13525       CTL2    445   POPC   C314   3432      -0.18     12.011
 13526       HAL2    445   POPC   H14X   3432       0.09      1.008
 13527       HAL2    445   POPC   H14Y   3432       0.09      1.008
 13528       CTL2    445   POPC   C315   3433      -0.18     12.011
 13529       HAL2    445   POPC   H15X   3433       0.09      1.008
 13530       HAL2    445   POPC   H15Y   3433       0.09      1.008
 13531       CTL3    445   POPC   C316   3434      -0.27     12.011
 13532       HAL3    445   POPC   H16X   3434       0.09      1.008
 13533       HAL3    445   POPC   H16Y   3434       0.09      1.008
 13534       HAL3    445   POPC   H16Z   3434       0.09      1.008   ; qtot 0
; residue 446 POPC rtp POPC q  0.0
 13535        NTL    446   POPC      N   3435       -0.6     14.007
 13536       CTL2    446   POPC    C12   3435       -0.1     12.011
 13537         HL    446   POPC   H12A   3435       0.25      1.008
 13538         HL    446   POPC   H12B   3435       0.25      1.008
 13539       CTL5    446   POPC    C13   3435      -0.35     12.011
 13540         HL    446   POPC   H13A   3435       0.25      1.008
 13541         HL    446   POPC   H13B   3435       0.25      1.008
 13542         HL    446   POPC   H13C   3435       0.25      1.008
 13543       CTL5    446   POPC    C14   3435      -0.35     12.011
 13544         HL    446   POPC   H14A   3435       0.25      1.008
 13545         HL    446   POPC   H14B   3435       0.25      1.008
 13546         HL    446   POPC   H14C   3435       0.25      1.008
 13547       CTL5    446   POPC    C15   3435      -0.35     12.011
 13548         HL    446   POPC   H15A   3435       0.25      1.008
 13549         HL    446   POPC   H15B   3435       0.25      1.008
 13550         HL    446   POPC   H15C   3435       0.25      1.008
 13551       CTL2    446   POPC    C11   3436      -0.08     12.011
 13552       HAL2    446   POPC   H11A   3436       0.09      1.008
 13553       HAL2    446   POPC   H11B   3436       0.09      1.008
 13554         PL    446   POPC      P   3436        1.5     30.974
 13555        O2L    446   POPC    O13   3436      -0.78    15.9994
 13556        O2L    446   POPC    O14   3436      -0.78    15.9994
 13557       OSLP    446   POPC    O12   3436      -0.57    15.9994
 13558       OSLP    446   POPC    O11   3436      -0.57    15.9994
 13559       CTL2    446   POPC     C1   3436      -0.08     12.011
 13560       HAL2    446   POPC     HA   3436       0.09      1.008
 13561       HAL2    446   POPC     HB   3436       0.09      1.008
 13562       CTL1    446   POPC     C2   3437       0.17     12.011
 13563       HAL1    446   POPC     HS   3437       0.09      1.008
 13564        OSL    446   POPC    O21   3437      -0.49    15.9994
 13565         CL    446   POPC    C21   3437        0.9     12.011
 13566        OBL    446   POPC    O22   3437      -0.63    15.9994
 13567       CTL2    446   POPC    C22   3437      -0.22     12.011
 13568       HAL2    446   POPC    H2R   3437       0.09      1.008
 13569       HAL2    446   POPC    H2S   3437       0.09      1.008
 13570       CTL2    446   POPC     C3   3438       0.08     12.011
 13571       HAL2    446   POPC     HX   3438       0.09      1.008
 13572       HAL2    446   POPC     HY   3438       0.09      1.008
 13573        OSL    446   POPC    O31   3438      -0.49    15.9994
 13574         CL    446   POPC    C31   3438        0.9     12.011
 13575        OBL    446   POPC    O32   3438      -0.63    15.9994
 13576       CTL2    446   POPC    C32   3438      -0.22     12.011
 13577       HAL2    446   POPC    H2X   3438       0.09      1.008
 13578       HAL2    446   POPC    H2Y   3438       0.09      1.008
 13579       CTL2    446   POPC    C23   3439      -0.18     12.011
 13580       HAL2    446   POPC    H3R   3439       0.09      1.008
 13581       HAL2    446   POPC    H3S   3439       0.09      1.008
 13582       CTL2    446   POPC    C24   3440      -0.18     12.011
 13583       HAL2    446   POPC    H4R   3440       0.09      1.008
 13584       HAL2    446   POPC    H4S   3440       0.09      1.008
 13585       CTL2    446   POPC    C25   3441      -0.18     12.011
 13586       HAL2    446   POPC    H5R   3441       0.09      1.008
 13587       HAL2    446   POPC    H5S   3441       0.09      1.008
 13588       CTL2    446   POPC    C26   3442      -0.18     12.011
 13589       HAL2    446   POPC    H6R   3442       0.09      1.008
 13590       HAL2    446   POPC    H6S   3442       0.09      1.008
 13591       CTL2    446   POPC    C27   3443      -0.18     12.011
 13592       HAL2    446   POPC    H7R   3443       0.09      1.008
 13593       HAL2    446   POPC    H7S   3443       0.09      1.008
 13594       CTL2    446   POPC    C28   3444      -0.18     12.011
 13595       HAL2    446   POPC    H8R   3444       0.09      1.008
 13596       HAL2    446   POPC    H8S   3444       0.09      1.008
 13597       CEL1    446   POPC    C29   3445      -0.15     12.011
 13598       HEL1    446   POPC    H91   3445       0.15      1.008
 13599       CEL1    446   POPC   C210   3446      -0.15     12.011
 13600       HEL1    446   POPC   H101   3446       0.15      1.008
 13601       CTL2    446   POPC   C211   3447      -0.18     12.011
 13602       HAL2    446   POPC   H11R   3447       0.09      1.008
 13603       HAL2    446   POPC   H11S   3447       0.09      1.008
 13604       CTL2    446   POPC   C212   3448      -0.18     12.011
 13605       HAL2    446   POPC   H12R   3448       0.09      1.008
 13606       HAL2    446   POPC   H12S   3448       0.09      1.008
 13607       CTL2    446   POPC   C213   3449      -0.18     12.011
 13608       HAL2    446   POPC   H13R   3449       0.09      1.008
 13609       HAL2    446   POPC   H13S   3449       0.09      1.008
 13610       CTL2    446   POPC   C214   3450      -0.18     12.011
 13611       HAL2    446   POPC   H14R   3450       0.09      1.008
 13612       HAL2    446   POPC   H14S   3450       0.09      1.008
 13613       CTL2    446   POPC   C215   3451      -0.18     12.011
 13614       HAL2    446   POPC   H15R   3451       0.09      1.008
 13615       HAL2    446   POPC   H15S   3451       0.09      1.008
 13616       CTL2    446   POPC   C216   3452      -0.18     12.011
 13617       HAL2    446   POPC   H16R   3452       0.09      1.008
 13618       HAL2    446   POPC   H16S   3452       0.09      1.008
 13619       CTL2    446   POPC   C217   3453      -0.18     12.011
 13620       HAL2    446   POPC   H17R   3453       0.09      1.008
 13621       HAL2    446   POPC   H17S   3453       0.09      1.008
 13622       CTL3    446   POPC   C218   3454      -0.27     12.011
 13623       HAL3    446   POPC   H18R   3454       0.09      1.008
 13624       HAL3    446   POPC   H18S   3454       0.09      1.008
 13625       HAL3    446   POPC   H18T   3454       0.09      1.008
 13626       CTL2    446   POPC    C33   3455      -0.18     12.011
 13627       HAL2    446   POPC    H3X   3455       0.09      1.008
 13628       HAL2    446   POPC    H3Y   3455       0.09      1.008
 13629       CTL2    446   POPC    C34   3456      -0.18     12.011
 13630       HAL2    446   POPC    H4X   3456       0.09      1.008
 13631       HAL2    446   POPC    H4Y   3456       0.09      1.008
 13632       CTL2    446   POPC    C35   3457      -0.18     12.011
 13633       HAL2    446   POPC    H5X   3457       0.09      1.008
 13634       HAL2    446   POPC    H5Y   3457       0.09      1.008
 13635       CTL2    446   POPC    C36   3458      -0.18     12.011
 13636       HAL2    446   POPC    H6X   3458       0.09      1.008
 13637       HAL2    446   POPC    H6Y   3458       0.09      1.008
 13638       CTL2    446   POPC    C37   3459      -0.18     12.011
 13639       HAL2    446   POPC    H7X   3459       0.09      1.008
 13640       HAL2    446   POPC    H7Y   3459       0.09      1.008
 13641       CTL2    446   POPC    C38   3460      -0.18     12.011
 13642       HAL2    446   POPC    H8X   3460       0.09      1.008
 13643       HAL2    446   POPC    H8Y   3460       0.09      1.008
 13644       CTL2    446   POPC    C39   3461      -0.18     12.011
 13645       HAL2    446   POPC    H9X   3461       0.09      1.008
 13646       HAL2    446   POPC    H9Y   3461       0.09      1.008
 13647       CTL2    446   POPC   C310   3462      -0.18     12.011
 13648       HAL2    446   POPC   H10X   3462       0.09      1.008
 13649       HAL2    446   POPC   H10Y   3462       0.09      1.008
 13650       CTL2    446   POPC   C311   3463      -0.18     12.011
 13651       HAL2    446   POPC   H11X   3463       0.09      1.008
 13652       HAL2    446   POPC   H11Y   3463       0.09      1.008
 13653       CTL2    446   POPC   C312   3464      -0.18     12.011
 13654       HAL2    446   POPC   H12X   3464       0.09      1.008
 13655       HAL2    446   POPC   H12Y   3464       0.09      1.008
 13656       CTL2    446   POPC   C313   3465      -0.18     12.011
 13657       HAL2    446   POPC   H13X   3465       0.09      1.008
 13658       HAL2    446   POPC   H13Y   3465       0.09      1.008
 13659       CTL2    446   POPC   C314   3466      -0.18     12.011
 13660       HAL2    446   POPC   H14X   3466       0.09      1.008
 13661       HAL2    446   POPC   H14Y   3466       0.09      1.008
 13662       CTL2    446   POPC   C315   3467      -0.18     12.011
 13663       HAL2    446   POPC   H15X   3467       0.09      1.008
 13664       HAL2    446   POPC   H15Y   3467       0.09      1.008
 13665       CTL3    446   POPC   C316   3468      -0.27     12.011
 13666       HAL3    446   POPC   H16X   3468       0.09      1.008
 13667       HAL3    446   POPC   H16Y   3468       0.09      1.008
 13668       HAL3    446   POPC   H16Z   3468       0.09      1.008   ; qtot 0
; residue 447 POPC rtp POPC q  0.0
 13669        NTL    447   POPC      N   3469       -0.6     14.007
 13670       CTL2    447   POPC    C12   3469       -0.1     12.011
 13671         HL    447   POPC   H12A   3469       0.25      1.008
 13672         HL    447   POPC   H12B   3469       0.25      1.008
 13673       CTL5    447   POPC    C13   3469      -0.35     12.011
 13674         HL    447   POPC   H13A   3469       0.25      1.008
 13675         HL    447   POPC   H13B   3469       0.25      1.008
 13676         HL    447   POPC   H13C   3469       0.25      1.008
 13677       CTL5    447   POPC    C14   3469      -0.35     12.011
 13678         HL    447   POPC   H14A   3469       0.25      1.008
 13679         HL    447   POPC   H14B   3469       0.25      1.008
 13680         HL    447   POPC   H14C   3469       0.25      1.008
 13681       CTL5    447   POPC    C15   3469      -0.35     12.011
 13682         HL    447   POPC   H15A   3469       0.25      1.008
 13683         HL    447   POPC   H15B   3469       0.25      1.008
 13684         HL    447   POPC   H15C   3469       0.25      1.008
 13685       CTL2    447   POPC    C11   3470      -0.08     12.011
 13686       HAL2    447   POPC   H11A   3470       0.09      1.008
 13687       HAL2    447   POPC   H11B   3470       0.09      1.008
 13688         PL    447   POPC      P   3470        1.5     30.974
 13689        O2L    447   POPC    O13   3470      -0.78    15.9994
 13690        O2L    447   POPC    O14   3470      -0.78    15.9994
 13691       OSLP    447   POPC    O12   3470      -0.57    15.9994
 13692       OSLP    447   POPC    O11   3470      -0.57    15.9994
 13693       CTL2    447   POPC     C1   3470      -0.08     12.011
 13694       HAL2    447   POPC     HA   3470       0.09      1.008
 13695       HAL2    447   POPC     HB   3470       0.09      1.008
 13696       CTL1    447   POPC     C2   3471       0.17     12.011
 13697       HAL1    447   POPC     HS   3471       0.09      1.008
 13698        OSL    447   POPC    O21   3471      -0.49    15.9994
 13699         CL    447   POPC    C21   3471        0.9     12.011
 13700        OBL    447   POPC    O22   3471      -0.63    15.9994
 13701       CTL2    447   POPC    C22   3471      -0.22     12.011
 13702       HAL2    447   POPC    H2R   3471       0.09      1.008
 13703       HAL2    447   POPC    H2S   3471       0.09      1.008
 13704       CTL2    447   POPC     C3   3472       0.08     12.011
 13705       HAL2    447   POPC     HX   3472       0.09      1.008
 13706       HAL2    447   POPC     HY   3472       0.09      1.008
 13707        OSL    447   POPC    O31   3472      -0.49    15.9994
 13708         CL    447   POPC    C31   3472        0.9     12.011
 13709        OBL    447   POPC    O32   3472      -0.63    15.9994
 13710       CTL2    447   POPC    C32   3472      -0.22     12.011
 13711       HAL2    447   POPC    H2X   3472       0.09      1.008
 13712       HAL2    447   POPC    H2Y   3472       0.09      1.008
 13713       CTL2    447   POPC    C23   3473      -0.18     12.011
 13714       HAL2    447   POPC    H3R   3473       0.09      1.008
 13715       HAL2    447   POPC    H3S   3473       0.09      1.008
 13716       CTL2    447   POPC    C24   3474      -0.18     12.011
 13717       HAL2    447   POPC    H4R   3474       0.09      1.008
 13718       HAL2    447   POPC    H4S   3474       0.09      1.008
 13719       CTL2    447   POPC    C25   3475      -0.18     12.011
 13720       HAL2    447   POPC    H5R   3475       0.09      1.008
 13721       HAL2    447   POPC    H5S   3475       0.09      1.008
 13722       CTL2    447   POPC    C26   3476      -0.18     12.011
 13723       HAL2    447   POPC    H6R   3476       0.09      1.008
 13724       HAL2    447   POPC    H6S   3476       0.09      1.008
 13725       CTL2    447   POPC    C27   3477      -0.18     12.011
 13726       HAL2    447   POPC    H7R   3477       0.09      1.008
 13727       HAL2    447   POPC    H7S   3477       0.09      1.008
 13728       CTL2    447   POPC    C28   3478      -0.18     12.011
 13729       HAL2    447   POPC    H8R   3478       0.09      1.008
 13730       HAL2    447   POPC    H8S   3478       0.09      1.008
 13731       CEL1    447   POPC    C29   3479      -0.15     12.011
 13732       HEL1    447   POPC    H91   3479       0.15      1.008
 13733       CEL1    447   POPC   C210   3480      -0.15     12.011
 13734       HEL1    447   POPC   H101   3480       0.15      1.008
 13735       CTL2    447   POPC   C211   3481      -0.18     12.011
 13736       HAL2    447   POPC   H11R   3481       0.09      1.008
 13737       HAL2    447   POPC   H11S   3481       0.09      1.008
 13738       CTL2    447   POPC   C212   3482      -0.18     12.011
 13739       HAL2    447   POPC   H12R   3482       0.09      1.008
 13740       HAL2    447   POPC   H12S   3482       0.09      1.008
 13741       CTL2    447   POPC   C213   3483      -0.18     12.011
 13742       HAL2    447   POPC   H13R   3483       0.09      1.008
 13743       HAL2    447   POPC   H13S   3483       0.09      1.008
 13744       CTL2    447   POPC   C214   3484      -0.18     12.011
 13745       HAL2    447   POPC   H14R   3484       0.09      1.008
 13746       HAL2    447   POPC   H14S   3484       0.09      1.008
 13747       CTL2    447   POPC   C215   3485      -0.18     12.011
 13748       HAL2    447   POPC   H15R   3485       0.09      1.008
 13749       HAL2    447   POPC   H15S   3485       0.09      1.008
 13750       CTL2    447   POPC   C216   3486      -0.18     12.011
 13751       HAL2    447   POPC   H16R   3486       0.09      1.008
 13752       HAL2    447   POPC   H16S   3486       0.09      1.008
 13753       CTL2    447   POPC   C217   3487      -0.18     12.011
 13754       HAL2    447   POPC   H17R   3487       0.09      1.008
 13755       HAL2    447   POPC   H17S   3487       0.09      1.008
 13756       CTL3    447   POPC   C218   3488      -0.27     12.011
 13757       HAL3    447   POPC   H18R   3488       0.09      1.008
 13758       HAL3    447   POPC   H18S   3488       0.09      1.008
 13759       HAL3    447   POPC   H18T   3488       0.09      1.008
 13760       CTL2    447   POPC    C33   3489      -0.18     12.011
 13761       HAL2    447   POPC    H3X   3489       0.09      1.008
 13762       HAL2    447   POPC    H3Y   3489       0.09      1.008
 13763       CTL2    447   POPC    C34   3490      -0.18     12.011
 13764       HAL2    447   POPC    H4X   3490       0.09      1.008
 13765       HAL2    447   POPC    H4Y   3490       0.09      1.008
 13766       CTL2    447   POPC    C35   3491      -0.18     12.011
 13767       HAL2    447   POPC    H5X   3491       0.09      1.008
 13768       HAL2    447   POPC    H5Y   3491       0.09      1.008
 13769       CTL2    447   POPC    C36   3492      -0.18     12.011
 13770       HAL2    447   POPC    H6X   3492       0.09      1.008
 13771       HAL2    447   POPC    H6Y   3492       0.09      1.008
 13772       CTL2    447   POPC    C37   3493      -0.18     12.011
 13773       HAL2    447   POPC    H7X   3493       0.09      1.008
 13774       HAL2    447   POPC    H7Y   3493       0.09      1.008
 13775       CTL2    447   POPC    C38   3494      -0.18     12.011
 13776       HAL2    447   POPC    H8X   3494       0.09      1.008
 13777       HAL2    447   POPC    H8Y   3494       0.09      1.008
 13778       CTL2    447   POPC    C39   3495      -0.18     12.011
 13779       HAL2    447   POPC    H9X   3495       0.09      1.008
 13780       HAL2    447   POPC    H9Y   3495       0.09      1.008
 13781       CTL2    447   POPC   C310   3496      -0.18     12.011
 13782       HAL2    447   POPC   H10X   3496       0.09      1.008
 13783       HAL2    447   POPC   H10Y   3496       0.09      1.008
 13784       CTL2    447   POPC   C311   3497      -0.18     12.011
 13785       HAL2    447   POPC   H11X   3497       0.09      1.008
 13786       HAL2    447   POPC   H11Y   3497       0.09      1.008
 13787       CTL2    447   POPC   C312   3498      -0.18     12.011
 13788       HAL2    447   POPC   H12X   3498       0.09      1.008
 13789       HAL2    447   POPC   H12Y   3498       0.09      1.008
 13790       CTL2    447   POPC   C313   3499      -0.18     12.011
 13791       HAL2    447   POPC   H13X   3499       0.09      1.008
 13792       HAL2    447   POPC   H13Y   3499       0.09      1.008
 13793       CTL2    447   POPC   C314   3500      -0.18     12.011
 13794       HAL2    447   POPC   H14X   3500       0.09      1.008
 13795       HAL2    447   POPC   H14Y   3500       0.09      1.008
 13796       CTL2    447   POPC   C315   3501      -0.18     12.011
 13797       HAL2    447   POPC   H15X   3501       0.09      1.008
 13798       HAL2    447   POPC   H15Y   3501       0.09      1.008
 13799       CTL3    447   POPC   C316   3502      -0.27     12.011
 13800       HAL3    447   POPC   H16X   3502       0.09      1.008
 13801       HAL3    447   POPC   H16Y   3502       0.09      1.008
 13802       HAL3    447   POPC   H16Z   3502       0.09      1.008   ; qtot 0
; residue 448 POPC rtp POPC q  0.0
 13803        NTL    448   POPC      N   3503       -0.6     14.007
 13804       CTL2    448   POPC    C12   3503       -0.1     12.011
 13805         HL    448   POPC   H12A   3503       0.25      1.008
 13806         HL    448   POPC   H12B   3503       0.25      1.008
 13807       CTL5    448   POPC    C13   3503      -0.35     12.011
 13808         HL    448   POPC   H13A   3503       0.25      1.008
 13809         HL    448   POPC   H13B   3503       0.25      1.008
 13810         HL    448   POPC   H13C   3503       0.25      1.008
 13811       CTL5    448   POPC    C14   3503      -0.35     12.011
 13812         HL    448   POPC   H14A   3503       0.25      1.008
 13813         HL    448   POPC   H14B   3503       0.25      1.008
 13814         HL    448   POPC   H14C   3503       0.25      1.008
 13815       CTL5    448   POPC    C15   3503      -0.35     12.011
 13816         HL    448   POPC   H15A   3503       0.25      1.008
 13817         HL    448   POPC   H15B   3503       0.25      1.008
 13818         HL    448   POPC   H15C   3503       0.25      1.008
 13819       CTL2    448   POPC    C11   3504      -0.08     12.011
 13820       HAL2    448   POPC   H11A   3504       0.09      1.008
 13821       HAL2    448   POPC   H11B   3504       0.09      1.008
 13822         PL    448   POPC      P   3504        1.5     30.974
 13823        O2L    448   POPC    O13   3504      -0.78    15.9994
 13824        O2L    448   POPC    O14   3504      -0.78    15.9994
 13825       OSLP    448   POPC    O12   3504      -0.57    15.9994
 13826       OSLP    448   POPC    O11   3504      -0.57    15.9994
 13827       CTL2    448   POPC     C1   3504      -0.08     12.011
 13828       HAL2    448   POPC     HA   3504       0.09      1.008
 13829       HAL2    448   POPC     HB   3504       0.09      1.008
 13830       CTL1    448   POPC     C2   3505       0.17     12.011
 13831       HAL1    448   POPC     HS   3505       0.09      1.008
 13832        OSL    448   POPC    O21   3505      -0.49    15.9994
 13833         CL    448   POPC    C21   3505        0.9     12.011
 13834        OBL    448   POPC    O22   3505      -0.63    15.9994
 13835       CTL2    448   POPC    C22   3505      -0.22     12.011
 13836       HAL2    448   POPC    H2R   3505       0.09      1.008
 13837       HAL2    448   POPC    H2S   3505       0.09      1.008
 13838       CTL2    448   POPC     C3   3506       0.08     12.011
 13839       HAL2    448   POPC     HX   3506       0.09      1.008
 13840       HAL2    448   POPC     HY   3506       0.09      1.008
 13841        OSL    448   POPC    O31   3506      -0.49    15.9994
 13842         CL    448   POPC    C31   3506        0.9     12.011
 13843        OBL    448   POPC    O32   3506      -0.63    15.9994
 13844       CTL2    448   POPC    C32   3506      -0.22     12.011
 13845       HAL2    448   POPC    H2X   3506       0.09      1.008
 13846       HAL2    448   POPC    H2Y   3506       0.09      1.008
 13847       CTL2    448   POPC    C23   3507      -0.18     12.011
 13848       HAL2    448   POPC    H3R   3507       0.09      1.008
 13849       HAL2    448   POPC    H3S   3507       0.09      1.008
 13850       CTL2    448   POPC    C24   3508      -0.18     12.011
 13851       HAL2    448   POPC    H4R   3508       0.09      1.008
 13852       HAL2    448   POPC    H4S   3508       0.09      1.008
 13853       CTL2    448   POPC    C25   3509      -0.18     12.011
 13854       HAL2    448   POPC    H5R   3509       0.09      1.008
 13855       HAL2    448   POPC    H5S   3509       0.09      1.008
 13856       CTL2    448   POPC    C26   3510      -0.18     12.011
 13857       HAL2    448   POPC    H6R   3510       0.09      1.008
 13858       HAL2    448   POPC    H6S   3510       0.09      1.008
 13859       CTL2    448   POPC    C27   3511      -0.18     12.011
 13860       HAL2    448   POPC    H7R   3511       0.09      1.008
 13861       HAL2    448   POPC    H7S   3511       0.09      1.008
 13862       CTL2    448   POPC    C28   3512      -0.18     12.011
 13863       HAL2    448   POPC    H8R   3512       0.09      1.008
 13864       HAL2    448   POPC    H8S   3512       0.09      1.008
 13865       CEL1    448   POPC    C29   3513      -0.15     12.011
 13866       HEL1    448   POPC    H91   3513       0.15      1.008
 13867       CEL1    448   POPC   C210   3514      -0.15     12.011
 13868       HEL1    448   POPC   H101   3514       0.15      1.008
 13869       CTL2    448   POPC   C211   3515      -0.18     12.011
 13870       HAL2    448   POPC   H11R   3515       0.09      1.008
 13871       HAL2    448   POPC   H11S   3515       0.09      1.008
 13872       CTL2    448   POPC   C212   3516      -0.18     12.011
 13873       HAL2    448   POPC   H12R   3516       0.09      1.008
 13874       HAL2    448   POPC   H12S   3516       0.09      1.008
 13875       CTL2    448   POPC   C213   3517      -0.18     12.011
 13876       HAL2    448   POPC   H13R   3517       0.09      1.008
 13877       HAL2    448   POPC   H13S   3517       0.09      1.008
 13878       CTL2    448   POPC   C214   3518      -0.18     12.011
 13879       HAL2    448   POPC   H14R   3518       0.09      1.008
 13880       HAL2    448   POPC   H14S   3518       0.09      1.008
 13881       CTL2    448   POPC   C215   3519      -0.18     12.011
 13882       HAL2    448   POPC   H15R   3519       0.09      1.008
 13883       HAL2    448   POPC   H15S   3519       0.09      1.008
 13884       CTL2    448   POPC   C216   3520      -0.18     12.011
 13885       HAL2    448   POPC   H16R   3520       0.09      1.008
 13886       HAL2    448   POPC   H16S   3520       0.09      1.008
 13887       CTL2    448   POPC   C217   3521      -0.18     12.011
 13888       HAL2    448   POPC   H17R   3521       0.09      1.008
 13889       HAL2    448   POPC   H17S   3521       0.09      1.008
 13890       CTL3    448   POPC   C218   3522      -0.27     12.011
 13891       HAL3    448   POPC   H18R   3522       0.09      1.008
 13892       HAL3    448   POPC   H18S   3522       0.09      1.008
 13893       HAL3    448   POPC   H18T   3522       0.09      1.008
 13894       CTL2    448   POPC    C33   3523      -0.18     12.011
 13895       HAL2    448   POPC    H3X   3523       0.09      1.008
 13896       HAL2    448   POPC    H3Y   3523       0.09      1.008
 13897       CTL2    448   POPC    C34   3524      -0.18     12.011
 13898       HAL2    448   POPC    H4X   3524       0.09      1.008
 13899       HAL2    448   POPC    H4Y   3524       0.09      1.008
 13900       CTL2    448   POPC    C35   3525      -0.18     12.011
 13901       HAL2    448   POPC    H5X   3525       0.09      1.008
 13902       HAL2    448   POPC    H5Y   3525       0.09      1.008
 13903       CTL2    448   POPC    C36   3526      -0.18     12.011
 13904       HAL2    448   POPC    H6X   3526       0.09      1.008
 13905       HAL2    448   POPC    H6Y   3526       0.09      1.008
 13906       CTL2    448   POPC    C37   3527      -0.18     12.011
 13907       HAL2    448   POPC    H7X   3527       0.09      1.008
 13908       HAL2    448   POPC    H7Y   3527       0.09      1.008
 13909       CTL2    448   POPC    C38   3528      -0.18     12.011
 13910       HAL2    448   POPC    H8X   3528       0.09      1.008
 13911       HAL2    448   POPC    H8Y   3528       0.09      1.008
 13912       CTL2    448   POPC    C39   3529      -0.18     12.011
 13913       HAL2    448   POPC    H9X   3529       0.09      1.008
 13914       HAL2    448   POPC    H9Y   3529       0.09      1.008
 13915       CTL2    448   POPC   C310   3530      -0.18     12.011
 13916       HAL2    448   POPC   H10X   3530       0.09      1.008
 13917       HAL2    448   POPC   H10Y   3530       0.09      1.008
 13918       CTL2    448   POPC   C311   3531      -0.18     12.011
 13919       HAL2    448   POPC   H11X   3531       0.09      1.008
 13920       HAL2    448   POPC   H11Y   3531       0.09      1.008
 13921       CTL2    448   POPC   C312   3532      -0.18     12.011
 13922       HAL2    448   POPC   H12X   3532       0.09      1.008
 13923       HAL2    448   POPC   H12Y   3532       0.09      1.008
 13924       CTL2    448   POPC   C313   3533      -0.18     12.011
 13925       HAL2    448   POPC   H13X   3533       0.09      1.008
 13926       HAL2    448   POPC   H13Y   3533       0.09      1.008
 13927       CTL2    448   POPC   C314   3534      -0.18     12.011
 13928       HAL2    448   POPC   H14X   3534       0.09      1.008
 13929       HAL2    448   POPC   H14Y   3534       0.09      1.008
 13930       CTL2    448   POPC   C315   3535      -0.18     12.011
 13931       HAL2    448   POPC   H15X   3535       0.09      1.008
 13932       HAL2    448   POPC   H15Y   3535       0.09      1.008
 13933       CTL3    448   POPC   C316   3536      -0.27     12.011
 13934       HAL3    448   POPC   H16X   3536       0.09      1.008
 13935       HAL3    448   POPC   H16Y   3536       0.09      1.008
 13936       HAL3    448   POPC   H16Z   3536       0.09      1.008   ; qtot 0
; residue 449 POPC rtp POPC q  0.0
 13937        NTL    449   POPC      N   3537       -0.6     14.007
 13938       CTL2    449   POPC    C12   3537       -0.1     12.011
 13939         HL    449   POPC   H12A   3537       0.25      1.008
 13940         HL    449   POPC   H12B   3537       0.25      1.008
 13941       CTL5    449   POPC    C13   3537      -0.35     12.011
 13942         HL    449   POPC   H13A   3537       0.25      1.008
 13943         HL    449   POPC   H13B   3537       0.25      1.008
 13944         HL    449   POPC   H13C   3537       0.25      1.008
 13945       CTL5    449   POPC    C14   3537      -0.35     12.011
 13946         HL    449   POPC   H14A   3537       0.25      1.008
 13947         HL    449   POPC   H14B   3537       0.25      1.008
 13948         HL    449   POPC   H14C   3537       0.25      1.008
 13949       CTL5    449   POPC    C15   3537      -0.35     12.011
 13950         HL    449   POPC   H15A   3537       0.25      1.008
 13951         HL    449   POPC   H15B   3537       0.25      1.008
 13952         HL    449   POPC   H15C   3537       0.25      1.008
 13953       CTL2    449   POPC    C11   3538      -0.08     12.011
 13954       HAL2    449   POPC   H11A   3538       0.09      1.008
 13955       HAL2    449   POPC   H11B   3538       0.09      1.008
 13956         PL    449   POPC      P   3538        1.5     30.974
 13957        O2L    449   POPC    O13   3538      -0.78    15.9994
 13958        O2L    449   POPC    O14   3538      -0.78    15.9994
 13959       OSLP    449   POPC    O12   3538      -0.57    15.9994
 13960       OSLP    449   POPC    O11   3538      -0.57    15.9994
 13961       CTL2    449   POPC     C1   3538      -0.08     12.011
 13962       HAL2    449   POPC     HA   3538       0.09      1.008
 13963       HAL2    449   POPC     HB   3538       0.09      1.008
 13964       CTL1    449   POPC     C2   3539       0.17     12.011
 13965       HAL1    449   POPC     HS   3539       0.09      1.008
 13966        OSL    449   POPC    O21   3539      -0.49    15.9994
 13967         CL    449   POPC    C21   3539        0.9     12.011
 13968        OBL    449   POPC    O22   3539      -0.63    15.9994
 13969       CTL2    449   POPC    C22   3539      -0.22     12.011
 13970       HAL2    449   POPC    H2R   3539       0.09      1.008
 13971       HAL2    449   POPC    H2S   3539       0.09      1.008
 13972       CTL2    449   POPC     C3   3540       0.08     12.011
 13973       HAL2    449   POPC     HX   3540       0.09      1.008
 13974       HAL2    449   POPC     HY   3540       0.09      1.008
 13975        OSL    449   POPC    O31   3540      -0.49    15.9994
 13976         CL    449   POPC    C31   3540        0.9     12.011
 13977        OBL    449   POPC    O32   3540      -0.63    15.9994
 13978       CTL2    449   POPC    C32   3540      -0.22     12.011
 13979       HAL2    449   POPC    H2X   3540       0.09      1.008
 13980       HAL2    449   POPC    H2Y   3540       0.09      1.008
 13981       CTL2    449   POPC    C23   3541      -0.18     12.011
 13982       HAL2    449   POPC    H3R   3541       0.09      1.008
 13983       HAL2    449   POPC    H3S   3541       0.09      1.008
 13984       CTL2    449   POPC    C24   3542      -0.18     12.011
 13985       HAL2    449   POPC    H4R   3542       0.09      1.008
 13986       HAL2    449   POPC    H4S   3542       0.09      1.008
 13987       CTL2    449   POPC    C25   3543      -0.18     12.011
 13988       HAL2    449   POPC    H5R   3543       0.09      1.008
 13989       HAL2    449   POPC    H5S   3543       0.09      1.008
 13990       CTL2    449   POPC    C26   3544      -0.18     12.011
 13991       HAL2    449   POPC    H6R   3544       0.09      1.008
 13992       HAL2    449   POPC    H6S   3544       0.09      1.008
 13993       CTL2    449   POPC    C27   3545      -0.18     12.011
 13994       HAL2    449   POPC    H7R   3545       0.09      1.008
 13995       HAL2    449   POPC    H7S   3545       0.09      1.008
 13996       CTL2    449   POPC    C28   3546      -0.18     12.011
 13997       HAL2    449   POPC    H8R   3546       0.09      1.008
 13998       HAL2    449   POPC    H8S   3546       0.09      1.008
 13999       CEL1    449   POPC    C29   3547      -0.15     12.011
 14000       HEL1    449   POPC    H91   3547       0.15      1.008
 14001       CEL1    449   POPC   C210   3548      -0.15     12.011
 14002       HEL1    449   POPC   H101   3548       0.15      1.008
 14003       CTL2    449   POPC   C211   3549      -0.18     12.011
 14004       HAL2    449   POPC   H11R   3549       0.09      1.008
 14005       HAL2    449   POPC   H11S   3549       0.09      1.008
 14006       CTL2    449   POPC   C212   3550      -0.18     12.011
 14007       HAL2    449   POPC   H12R   3550       0.09      1.008
 14008       HAL2    449   POPC   H12S   3550       0.09      1.008
 14009       CTL2    449   POPC   C213   3551      -0.18     12.011
 14010       HAL2    449   POPC   H13R   3551       0.09      1.008
 14011       HAL2    449   POPC   H13S   3551       0.09      1.008
 14012       CTL2    449   POPC   C214   3552      -0.18     12.011
 14013       HAL2    449   POPC   H14R   3552       0.09      1.008
 14014       HAL2    449   POPC   H14S   3552       0.09      1.008
 14015       CTL2    449   POPC   C215   3553      -0.18     12.011
 14016       HAL2    449   POPC   H15R   3553       0.09      1.008
 14017       HAL2    449   POPC   H15S   3553       0.09      1.008
 14018       CTL2    449   POPC   C216   3554      -0.18     12.011
 14019       HAL2    449   POPC   H16R   3554       0.09      1.008
 14020       HAL2    449   POPC   H16S   3554       0.09      1.008
 14021       CTL2    449   POPC   C217   3555      -0.18     12.011
 14022       HAL2    449   POPC   H17R   3555       0.09      1.008
 14023       HAL2    449   POPC   H17S   3555       0.09      1.008
 14024       CTL3    449   POPC   C218   3556      -0.27     12.011
 14025       HAL3    449   POPC   H18R   3556       0.09      1.008
 14026       HAL3    449   POPC   H18S   3556       0.09      1.008
 14027       HAL3    449   POPC   H18T   3556       0.09      1.008
 14028       CTL2    449   POPC    C33   3557      -0.18     12.011
 14029       HAL2    449   POPC    H3X   3557       0.09      1.008
 14030       HAL2    449   POPC    H3Y   3557       0.09      1.008
 14031       CTL2    449   POPC    C34   3558      -0.18     12.011
 14032       HAL2    449   POPC    H4X   3558       0.09      1.008
 14033       HAL2    449   POPC    H4Y   3558       0.09      1.008
 14034       CTL2    449   POPC    C35   3559      -0.18     12.011
 14035       HAL2    449   POPC    H5X   3559       0.09      1.008
 14036       HAL2    449   POPC    H5Y   3559       0.09      1.008
 14037       CTL2    449   POPC    C36   3560      -0.18     12.011
 14038       HAL2    449   POPC    H6X   3560       0.09      1.008
 14039       HAL2    449   POPC    H6Y   3560       0.09      1.008
 14040       CTL2    449   POPC    C37   3561      -0.18     12.011
 14041       HAL2    449   POPC    H7X   3561       0.09      1.008
 14042       HAL2    449   POPC    H7Y   3561       0.09      1.008
 14043       CTL2    449   POPC    C38   3562      -0.18     12.011
 14044       HAL2    449   POPC    H8X   3562       0.09      1.008
 14045       HAL2    449   POPC    H8Y   3562       0.09      1.008
 14046       CTL2    449   POPC    C39   3563      -0.18     12.011
 14047       HAL2    449   POPC    H9X   3563       0.09      1.008
 14048       HAL2    449   POPC    H9Y   3563       0.09      1.008
 14049       CTL2    449   POPC   C310   3564      -0.18     12.011
 14050       HAL2    449   POPC   H10X   3564       0.09      1.008
 14051       HAL2    449   POPC   H10Y   3564       0.09      1.008
 14052       CTL2    449   POPC   C311   3565      -0.18     12.011
 14053       HAL2    449   POPC   H11X   3565       0.09      1.008
 14054       HAL2    449   POPC   H11Y   3565       0.09      1.008
 14055       CTL2    449   POPC   C312   3566      -0.18     12.011
 14056       HAL2    449   POPC   H12X   3566       0.09      1.008
 14057       HAL2    449   POPC   H12Y   3566       0.09      1.008
 14058       CTL2    449   POPC   C313   3567      -0.18     12.011
 14059       HAL2    449   POPC   H13X   3567       0.09      1.008
 14060       HAL2    449   POPC   H13Y   3567       0.09      1.008
 14061       CTL2    449   POPC   C314   3568      -0.18     12.011
 14062       HAL2    449   POPC   H14X   3568       0.09      1.008
 14063       HAL2    449   POPC   H14Y   3568       0.09      1.008
 14064       CTL2    449   POPC   C315   3569      -0.18     12.011
 14065       HAL2    449   POPC   H15X   3569       0.09      1.008
 14066       HAL2    449   POPC   H15Y   3569       0.09      1.008
 14067       CTL3    449   POPC   C316   3570      -0.27     12.011
 14068       HAL3    449   POPC   H16X   3570       0.09      1.008
 14069       HAL3    449   POPC   H16Y   3570       0.09      1.008
 14070       HAL3    449   POPC   H16Z   3570       0.09      1.008   ; qtot 0
; residue 450 POPC rtp POPC q  0.0
 14071        NTL    450   POPC      N   3571       -0.6     14.007
 14072       CTL2    450   POPC    C12   3571       -0.1     12.011
 14073         HL    450   POPC   H12A   3571       0.25      1.008
 14074         HL    450   POPC   H12B   3571       0.25      1.008
 14075       CTL5    450   POPC    C13   3571      -0.35     12.011
 14076         HL    450   POPC   H13A   3571       0.25      1.008
 14077         HL    450   POPC   H13B   3571       0.25      1.008
 14078         HL    450   POPC   H13C   3571       0.25      1.008
 14079       CTL5    450   POPC    C14   3571      -0.35     12.011
 14080         HL    450   POPC   H14A   3571       0.25      1.008
 14081         HL    450   POPC   H14B   3571       0.25      1.008
 14082         HL    450   POPC   H14C   3571       0.25      1.008
 14083       CTL5    450   POPC    C15   3571      -0.35     12.011
 14084         HL    450   POPC   H15A   3571       0.25      1.008
 14085         HL    450   POPC   H15B   3571       0.25      1.008
 14086         HL    450   POPC   H15C   3571       0.25      1.008
 14087       CTL2    450   POPC    C11   3572      -0.08     12.011
 14088       HAL2    450   POPC   H11A   3572       0.09      1.008
 14089       HAL2    450   POPC   H11B   3572       0.09      1.008
 14090         PL    450   POPC      P   3572        1.5     30.974
 14091        O2L    450   POPC    O13   3572      -0.78    15.9994
 14092        O2L    450   POPC    O14   3572      -0.78    15.9994
 14093       OSLP    450   POPC    O12   3572      -0.57    15.9994
 14094       OSLP    450   POPC    O11   3572      -0.57    15.9994
 14095       CTL2    450   POPC     C1   3572      -0.08     12.011
 14096       HAL2    450   POPC     HA   3572       0.09      1.008
 14097       HAL2    450   POPC     HB   3572       0.09      1.008
 14098       CTL1    450   POPC     C2   3573       0.17     12.011
 14099       HAL1    450   POPC     HS   3573       0.09      1.008
 14100        OSL    450   POPC    O21   3573      -0.49    15.9994
 14101         CL    450   POPC    C21   3573        0.9     12.011
 14102        OBL    450   POPC    O22   3573      -0.63    15.9994
 14103       CTL2    450   POPC    C22   3573      -0.22     12.011
 14104       HAL2    450   POPC    H2R   3573       0.09      1.008
 14105       HAL2    450   POPC    H2S   3573       0.09      1.008
 14106       CTL2    450   POPC     C3   3574       0.08     12.011
 14107       HAL2    450   POPC     HX   3574       0.09      1.008
 14108       HAL2    450   POPC     HY   3574       0.09      1.008
 14109        OSL    450   POPC    O31   3574      -0.49    15.9994
 14110         CL    450   POPC    C31   3574        0.9     12.011
 14111        OBL    450   POPC    O32   3574      -0.63    15.9994
 14112       CTL2    450   POPC    C32   3574      -0.22     12.011
 14113       HAL2    450   POPC    H2X   3574       0.09      1.008
 14114       HAL2    450   POPC    H2Y   3574       0.09      1.008
 14115       CTL2    450   POPC    C23   3575      -0.18     12.011
 14116       HAL2    450   POPC    H3R   3575       0.09      1.008
 14117       HAL2    450   POPC    H3S   3575       0.09      1.008
 14118       CTL2    450   POPC    C24   3576      -0.18     12.011
 14119       HAL2    450   POPC    H4R   3576       0.09      1.008
 14120       HAL2    450   POPC    H4S   3576       0.09      1.008
 14121       CTL2    450   POPC    C25   3577      -0.18     12.011
 14122       HAL2    450   POPC    H5R   3577       0.09      1.008
 14123       HAL2    450   POPC    H5S   3577       0.09      1.008
 14124       CTL2    450   POPC    C26   3578      -0.18     12.011
 14125       HAL2    450   POPC    H6R   3578       0.09      1.008
 14126       HAL2    450   POPC    H6S   3578       0.09      1.008
 14127       CTL2    450   POPC    C27   3579      -0.18     12.011
 14128       HAL2    450   POPC    H7R   3579       0.09      1.008
 14129       HAL2    450   POPC    H7S   3579       0.09      1.008
 14130       CTL2    450   POPC    C28   3580      -0.18     12.011
 14131       HAL2    450   POPC    H8R   3580       0.09      1.008
 14132       HAL2    450   POPC    H8S   3580       0.09      1.008
 14133       CEL1    450   POPC    C29   3581      -0.15     12.011
 14134       HEL1    450   POPC    H91   3581       0.15      1.008
 14135       CEL1    450   POPC   C210   3582      -0.15     12.011
 14136       HEL1    450   POPC   H101   3582       0.15      1.008
 14137       CTL2    450   POPC   C211   3583      -0.18     12.011
 14138       HAL2    450   POPC   H11R   3583       0.09      1.008
 14139       HAL2    450   POPC   H11S   3583       0.09      1.008
 14140       CTL2    450   POPC   C212   3584      -0.18     12.011
 14141       HAL2    450   POPC   H12R   3584       0.09      1.008
 14142       HAL2    450   POPC   H12S   3584       0.09      1.008
 14143       CTL2    450   POPC   C213   3585      -0.18     12.011
 14144       HAL2    450   POPC   H13R   3585       0.09      1.008
 14145       HAL2    450   POPC   H13S   3585       0.09      1.008
 14146       CTL2    450   POPC   C214   3586      -0.18     12.011
 14147       HAL2    450   POPC   H14R   3586       0.09      1.008
 14148       HAL2    450   POPC   H14S   3586       0.09      1.008
 14149       CTL2    450   POPC   C215   3587      -0.18     12.011
 14150       HAL2    450   POPC   H15R   3587       0.09      1.008
 14151       HAL2    450   POPC   H15S   3587       0.09      1.008
 14152       CTL2    450   POPC   C216   3588      -0.18     12.011
 14153       HAL2    450   POPC   H16R   3588       0.09      1.008
 14154       HAL2    450   POPC   H16S   3588       0.09      1.008
 14155       CTL2    450   POPC   C217   3589      -0.18     12.011
 14156       HAL2    450   POPC   H17R   3589       0.09      1.008
 14157       HAL2    450   POPC   H17S   3589       0.09      1.008
 14158       CTL3    450   POPC   C218   3590      -0.27     12.011
 14159       HAL3    450   POPC   H18R   3590       0.09      1.008
 14160       HAL3    450   POPC   H18S   3590       0.09      1.008
 14161       HAL3    450   POPC   H18T   3590       0.09      1.008
 14162       CTL2    450   POPC    C33   3591      -0.18     12.011
 14163       HAL2    450   POPC    H3X   3591       0.09      1.008
 14164       HAL2    450   POPC    H3Y   3591       0.09      1.008
 14165       CTL2    450   POPC    C34   3592      -0.18     12.011
 14166       HAL2    450   POPC    H4X   3592       0.09      1.008
 14167       HAL2    450   POPC    H4Y   3592       0.09      1.008
 14168       CTL2    450   POPC    C35   3593      -0.18     12.011
 14169       HAL2    450   POPC    H5X   3593       0.09      1.008
 14170       HAL2    450   POPC    H5Y   3593       0.09      1.008
 14171       CTL2    450   POPC    C36   3594      -0.18     12.011
 14172       HAL2    450   POPC    H6X   3594       0.09      1.008
 14173       HAL2    450   POPC    H6Y   3594       0.09      1.008
 14174       CTL2    450   POPC    C37   3595      -0.18     12.011
 14175       HAL2    450   POPC    H7X   3595       0.09      1.008
 14176       HAL2    450   POPC    H7Y   3595       0.09      1.008
 14177       CTL2    450   POPC    C38   3596      -0.18     12.011
 14178       HAL2    450   POPC    H8X   3596       0.09      1.008
 14179       HAL2    450   POPC    H8Y   3596       0.09      1.008
 14180       CTL2    450   POPC    C39   3597      -0.18     12.011
 14181       HAL2    450   POPC    H9X   3597       0.09      1.008
 14182       HAL2    450   POPC    H9Y   3597       0.09      1.008
 14183       CTL2    450   POPC   C310   3598      -0.18     12.011
 14184       HAL2    450   POPC   H10X   3598       0.09      1.008
 14185       HAL2    450   POPC   H10Y   3598       0.09      1.008
 14186       CTL2    450   POPC   C311   3599      -0.18     12.011
 14187       HAL2    450   POPC   H11X   3599       0.09      1.008
 14188       HAL2    450   POPC   H11Y   3599       0.09      1.008
 14189       CTL2    450   POPC   C312   3600      -0.18     12.011
 14190       HAL2    450   POPC   H12X   3600       0.09      1.008
 14191       HAL2    450   POPC   H12Y   3600       0.09      1.008
 14192       CTL2    450   POPC   C313   3601      -0.18     12.011
 14193       HAL2    450   POPC   H13X   3601       0.09      1.008
 14194       HAL2    450   POPC   H13Y   3601       0.09      1.008
 14195       CTL2    450   POPC   C314   3602      -0.18     12.011
 14196       HAL2    450   POPC   H14X   3602       0.09      1.008
 14197       HAL2    450   POPC   H14Y   3602       0.09      1.008
 14198       CTL2    450   POPC   C315   3603      -0.18     12.011
 14199       HAL2    450   POPC   H15X   3603       0.09      1.008
 14200       HAL2    450   POPC   H15Y   3603       0.09      1.008
 14201       CTL3    450   POPC   C316   3604      -0.27     12.011
 14202       HAL3    450   POPC   H16X   3604       0.09      1.008
 14203       HAL3    450   POPC   H16Y   3604       0.09      1.008
 14204       HAL3    450   POPC   H16Z   3604       0.09      1.008   ; qtot 0
; residue 451 POPC rtp POPC q  0.0
 14205        NTL    451   POPC      N   3605       -0.6     14.007
 14206       CTL2    451   POPC    C12   3605       -0.1     12.011
 14207         HL    451   POPC   H12A   3605       0.25      1.008
 14208         HL    451   POPC   H12B   3605       0.25      1.008
 14209       CTL5    451   POPC    C13   3605      -0.35     12.011
 14210         HL    451   POPC   H13A   3605       0.25      1.008
 14211         HL    451   POPC   H13B   3605       0.25      1.008
 14212         HL    451   POPC   H13C   3605       0.25      1.008
 14213       CTL5    451   POPC    C14   3605      -0.35     12.011
 14214         HL    451   POPC   H14A   3605       0.25      1.008
 14215         HL    451   POPC   H14B   3605       0.25      1.008
 14216         HL    451   POPC   H14C   3605       0.25      1.008
 14217       CTL5    451   POPC    C15   3605      -0.35     12.011
 14218         HL    451   POPC   H15A   3605       0.25      1.008
 14219         HL    451   POPC   H15B   3605       0.25      1.008
 14220         HL    451   POPC   H15C   3605       0.25      1.008
 14221       CTL2    451   POPC    C11   3606      -0.08     12.011
 14222       HAL2    451   POPC   H11A   3606       0.09      1.008
 14223       HAL2    451   POPC   H11B   3606       0.09      1.008
 14224         PL    451   POPC      P   3606        1.5     30.974
 14225        O2L    451   POPC    O13   3606      -0.78    15.9994
 14226        O2L    451   POPC    O14   3606      -0.78    15.9994
 14227       OSLP    451   POPC    O12   3606      -0.57    15.9994
 14228       OSLP    451   POPC    O11   3606      -0.57    15.9994
 14229       CTL2    451   POPC     C1   3606      -0.08     12.011
 14230       HAL2    451   POPC     HA   3606       0.09      1.008
 14231       HAL2    451   POPC     HB   3606       0.09      1.008
 14232       CTL1    451   POPC     C2   3607       0.17     12.011
 14233       HAL1    451   POPC     HS   3607       0.09      1.008
 14234        OSL    451   POPC    O21   3607      -0.49    15.9994
 14235         CL    451   POPC    C21   3607        0.9     12.011
 14236        OBL    451   POPC    O22   3607      -0.63    15.9994
 14237       CTL2    451   POPC    C22   3607      -0.22     12.011
 14238       HAL2    451   POPC    H2R   3607       0.09      1.008
 14239       HAL2    451   POPC    H2S   3607       0.09      1.008
 14240       CTL2    451   POPC     C3   3608       0.08     12.011
 14241       HAL2    451   POPC     HX   3608       0.09      1.008
 14242       HAL2    451   POPC     HY   3608       0.09      1.008
 14243        OSL    451   POPC    O31   3608      -0.49    15.9994
 14244         CL    451   POPC    C31   3608        0.9     12.011
 14245        OBL    451   POPC    O32   3608      -0.63    15.9994
 14246       CTL2    451   POPC    C32   3608      -0.22     12.011
 14247       HAL2    451   POPC    H2X   3608       0.09      1.008
 14248       HAL2    451   POPC    H2Y   3608       0.09      1.008
 14249       CTL2    451   POPC    C23   3609      -0.18     12.011
 14250       HAL2    451   POPC    H3R   3609       0.09      1.008
 14251       HAL2    451   POPC    H3S   3609       0.09      1.008
 14252       CTL2    451   POPC    C24   3610      -0.18     12.011
 14253       HAL2    451   POPC    H4R   3610       0.09      1.008
 14254       HAL2    451   POPC    H4S   3610       0.09      1.008
 14255       CTL2    451   POPC    C25   3611      -0.18     12.011
 14256       HAL2    451   POPC    H5R   3611       0.09      1.008
 14257       HAL2    451   POPC    H5S   3611       0.09      1.008
 14258       CTL2    451   POPC    C26   3612      -0.18     12.011
 14259       HAL2    451   POPC    H6R   3612       0.09      1.008
 14260       HAL2    451   POPC    H6S   3612       0.09      1.008
 14261       CTL2    451   POPC    C27   3613      -0.18     12.011
 14262       HAL2    451   POPC    H7R   3613       0.09      1.008
 14263       HAL2    451   POPC    H7S   3613       0.09      1.008
 14264       CTL2    451   POPC    C28   3614      -0.18     12.011
 14265       HAL2    451   POPC    H8R   3614       0.09      1.008
 14266       HAL2    451   POPC    H8S   3614       0.09      1.008
 14267       CEL1    451   POPC    C29   3615      -0.15     12.011
 14268       HEL1    451   POPC    H91   3615       0.15      1.008
 14269       CEL1    451   POPC   C210   3616      -0.15     12.011
 14270       HEL1    451   POPC   H101   3616       0.15      1.008
 14271       CTL2    451   POPC   C211   3617      -0.18     12.011
 14272       HAL2    451   POPC   H11R   3617       0.09      1.008
 14273       HAL2    451   POPC   H11S   3617       0.09      1.008
 14274       CTL2    451   POPC   C212   3618      -0.18     12.011
 14275       HAL2    451   POPC   H12R   3618       0.09      1.008
 14276       HAL2    451   POPC   H12S   3618       0.09      1.008
 14277       CTL2    451   POPC   C213   3619      -0.18     12.011
 14278       HAL2    451   POPC   H13R   3619       0.09      1.008
 14279       HAL2    451   POPC   H13S   3619       0.09      1.008
 14280       CTL2    451   POPC   C214   3620      -0.18     12.011
 14281       HAL2    451   POPC   H14R   3620       0.09      1.008
 14282       HAL2    451   POPC   H14S   3620       0.09      1.008
 14283       CTL2    451   POPC   C215   3621      -0.18     12.011
 14284       HAL2    451   POPC   H15R   3621       0.09      1.008
 14285       HAL2    451   POPC   H15S   3621       0.09      1.008
 14286       CTL2    451   POPC   C216   3622      -0.18     12.011
 14287       HAL2    451   POPC   H16R   3622       0.09      1.008
 14288       HAL2    451   POPC   H16S   3622       0.09      1.008
 14289       CTL2    451   POPC   C217   3623      -0.18     12.011
 14290       HAL2    451   POPC   H17R   3623       0.09      1.008
 14291       HAL2    451   POPC   H17S   3623       0.09      1.008
 14292       CTL3    451   POPC   C218   3624      -0.27     12.011
 14293       HAL3    451   POPC   H18R   3624       0.09      1.008
 14294       HAL3    451   POPC   H18S   3624       0.09      1.008
 14295       HAL3    451   POPC   H18T   3624       0.09      1.008
 14296       CTL2    451   POPC    C33   3625      -0.18     12.011
 14297       HAL2    451   POPC    H3X   3625       0.09      1.008
 14298       HAL2    451   POPC    H3Y   3625       0.09      1.008
 14299       CTL2    451   POPC    C34   3626      -0.18     12.011
 14300       HAL2    451   POPC    H4X   3626       0.09      1.008
 14301       HAL2    451   POPC    H4Y   3626       0.09      1.008
 14302       CTL2    451   POPC    C35   3627      -0.18     12.011
 14303       HAL2    451   POPC    H5X   3627       0.09      1.008
 14304       HAL2    451   POPC    H5Y   3627       0.09      1.008
 14305       CTL2    451   POPC    C36   3628      -0.18     12.011
 14306       HAL2    451   POPC    H6X   3628       0.09      1.008
 14307       HAL2    451   POPC    H6Y   3628       0.09      1.008
 14308       CTL2    451   POPC    C37   3629      -0.18     12.011
 14309       HAL2    451   POPC    H7X   3629       0.09      1.008
 14310       HAL2    451   POPC    H7Y   3629       0.09      1.008
 14311       CTL2    451   POPC    C38   3630      -0.18     12.011
 14312       HAL2    451   POPC    H8X   3630       0.09      1.008
 14313       HAL2    451   POPC    H8Y   3630       0.09      1.008
 14314       CTL2    451   POPC    C39   3631      -0.18     12.011
 14315       HAL2    451   POPC    H9X   3631       0.09      1.008
 14316       HAL2    451   POPC    H9Y   3631       0.09      1.008
 14317       CTL2    451   POPC   C310   3632      -0.18     12.011
 14318       HAL2    451   POPC   H10X   3632       0.09      1.008
 14319       HAL2    451   POPC   H10Y   3632       0.09      1.008
 14320       CTL2    451   POPC   C311   3633      -0.18     12.011
 14321       HAL2    451   POPC   H11X   3633       0.09      1.008
 14322       HAL2    451   POPC   H11Y   3633       0.09      1.008
 14323       CTL2    451   POPC   C312   3634      -0.18     12.011
 14324       HAL2    451   POPC   H12X   3634       0.09      1.008
 14325       HAL2    451   POPC   H12Y   3634       0.09      1.008
 14326       CTL2    451   POPC   C313   3635      -0.18     12.011
 14327       HAL2    451   POPC   H13X   3635       0.09      1.008
 14328       HAL2    451   POPC   H13Y   3635       0.09      1.008
 14329       CTL2    451   POPC   C314   3636      -0.18     12.011
 14330       HAL2    451   POPC   H14X   3636       0.09      1.008
 14331       HAL2    451   POPC   H14Y   3636       0.09      1.008
 14332       CTL2    451   POPC   C315   3637      -0.18     12.011
 14333       HAL2    451   POPC   H15X   3637       0.09      1.008
 14334       HAL2    451   POPC   H15Y   3637       0.09      1.008
 14335       CTL3    451   POPC   C316   3638      -0.27     12.011
 14336       HAL3    451   POPC   H16X   3638       0.09      1.008
 14337       HAL3    451   POPC   H16Y   3638       0.09      1.008
 14338       HAL3    451   POPC   H16Z   3638       0.09      1.008   ; qtot 0
; residue 452 POPC rtp POPC q  0.0
 14339        NTL    452   POPC      N   3639       -0.6     14.007
 14340       CTL2    452   POPC    C12   3639       -0.1     12.011
 14341         HL    452   POPC   H12A   3639       0.25      1.008
 14342         HL    452   POPC   H12B   3639       0.25      1.008
 14343       CTL5    452   POPC    C13   3639      -0.35     12.011
 14344         HL    452   POPC   H13A   3639       0.25      1.008
 14345         HL    452   POPC   H13B   3639       0.25      1.008
 14346         HL    452   POPC   H13C   3639       0.25      1.008
 14347       CTL5    452   POPC    C14   3639      -0.35     12.011
 14348         HL    452   POPC   H14A   3639       0.25      1.008
 14349         HL    452   POPC   H14B   3639       0.25      1.008
 14350         HL    452   POPC   H14C   3639       0.25      1.008
 14351       CTL5    452   POPC    C15   3639      -0.35     12.011
 14352         HL    452   POPC   H15A   3639       0.25      1.008
 14353         HL    452   POPC   H15B   3639       0.25      1.008
 14354         HL    452   POPC   H15C   3639       0.25      1.008
 14355       CTL2    452   POPC    C11   3640      -0.08     12.011
 14356       HAL2    452   POPC   H11A   3640       0.09      1.008
 14357       HAL2    452   POPC   H11B   3640       0.09      1.008
 14358         PL    452   POPC      P   3640        1.5     30.974
 14359        O2L    452   POPC    O13   3640      -0.78    15.9994
 14360        O2L    452   POPC    O14   3640      -0.78    15.9994
 14361       OSLP    452   POPC    O12   3640      -0.57    15.9994
 14362       OSLP    452   POPC    O11   3640      -0.57    15.9994
 14363       CTL2    452   POPC     C1   3640      -0.08     12.011
 14364       HAL2    452   POPC     HA   3640       0.09      1.008
 14365       HAL2    452   POPC     HB   3640       0.09      1.008
 14366       CTL1    452   POPC     C2   3641       0.17     12.011
 14367       HAL1    452   POPC     HS   3641       0.09      1.008
 14368        OSL    452   POPC    O21   3641      -0.49    15.9994
 14369         CL    452   POPC    C21   3641        0.9     12.011
 14370        OBL    452   POPC    O22   3641      -0.63    15.9994
 14371       CTL2    452   POPC    C22   3641      -0.22     12.011
 14372       HAL2    452   POPC    H2R   3641       0.09      1.008
 14373       HAL2    452   POPC    H2S   3641       0.09      1.008
 14374       CTL2    452   POPC     C3   3642       0.08     12.011
 14375       HAL2    452   POPC     HX   3642       0.09      1.008
 14376       HAL2    452   POPC     HY   3642       0.09      1.008
 14377        OSL    452   POPC    O31   3642      -0.49    15.9994
 14378         CL    452   POPC    C31   3642        0.9     12.011
 14379        OBL    452   POPC    O32   3642      -0.63    15.9994
 14380       CTL2    452   POPC    C32   3642      -0.22     12.011
 14381       HAL2    452   POPC    H2X   3642       0.09      1.008
 14382       HAL2    452   POPC    H2Y   3642       0.09      1.008
 14383       CTL2    452   POPC    C23   3643      -0.18     12.011
 14384       HAL2    452   POPC    H3R   3643       0.09      1.008
 14385       HAL2    452   POPC    H3S   3643       0.09      1.008
 14386       CTL2    452   POPC    C24   3644      -0.18     12.011
 14387       HAL2    452   POPC    H4R   3644       0.09      1.008
 14388       HAL2    452   POPC    H4S   3644       0.09      1.008
 14389       CTL2    452   POPC    C25   3645      -0.18     12.011
 14390       HAL2    452   POPC    H5R   3645       0.09      1.008
 14391       HAL2    452   POPC    H5S   3645       0.09      1.008
 14392       CTL2    452   POPC    C26   3646      -0.18     12.011
 14393       HAL2    452   POPC    H6R   3646       0.09      1.008
 14394       HAL2    452   POPC    H6S   3646       0.09      1.008
 14395       CTL2    452   POPC    C27   3647      -0.18     12.011
 14396       HAL2    452   POPC    H7R   3647       0.09      1.008
 14397       HAL2    452   POPC    H7S   3647       0.09      1.008
 14398       CTL2    452   POPC    C28   3648      -0.18     12.011
 14399       HAL2    452   POPC    H8R   3648       0.09      1.008
 14400       HAL2    452   POPC    H8S   3648       0.09      1.008
 14401       CEL1    452   POPC    C29   3649      -0.15     12.011
 14402       HEL1    452   POPC    H91   3649       0.15      1.008
 14403       CEL1    452   POPC   C210   3650      -0.15     12.011
 14404       HEL1    452   POPC   H101   3650       0.15      1.008
 14405       CTL2    452   POPC   C211   3651      -0.18     12.011
 14406       HAL2    452   POPC   H11R   3651       0.09      1.008
 14407       HAL2    452   POPC   H11S   3651       0.09      1.008
 14408       CTL2    452   POPC   C212   3652      -0.18     12.011
 14409       HAL2    452   POPC   H12R   3652       0.09      1.008
 14410       HAL2    452   POPC   H12S   3652       0.09      1.008
 14411       CTL2    452   POPC   C213   3653      -0.18     12.011
 14412       HAL2    452   POPC   H13R   3653       0.09      1.008
 14413       HAL2    452   POPC   H13S   3653       0.09      1.008
 14414       CTL2    452   POPC   C214   3654      -0.18     12.011
 14415       HAL2    452   POPC   H14R   3654       0.09      1.008
 14416       HAL2    452   POPC   H14S   3654       0.09      1.008
 14417       CTL2    452   POPC   C215   3655      -0.18     12.011
 14418       HAL2    452   POPC   H15R   3655       0.09      1.008
 14419       HAL2    452   POPC   H15S   3655       0.09      1.008
 14420       CTL2    452   POPC   C216   3656      -0.18     12.011
 14421       HAL2    452   POPC   H16R   3656       0.09      1.008
 14422       HAL2    452   POPC   H16S   3656       0.09      1.008
 14423       CTL2    452   POPC   C217   3657      -0.18     12.011
 14424       HAL2    452   POPC   H17R   3657       0.09      1.008
 14425       HAL2    452   POPC   H17S   3657       0.09      1.008
 14426       CTL3    452   POPC   C218   3658      -0.27     12.011
 14427       HAL3    452   POPC   H18R   3658       0.09      1.008
 14428       HAL3    452   POPC   H18S   3658       0.09      1.008
 14429       HAL3    452   POPC   H18T   3658       0.09      1.008
 14430       CTL2    452   POPC    C33   3659      -0.18     12.011
 14431       HAL2    452   POPC    H3X   3659       0.09      1.008
 14432       HAL2    452   POPC    H3Y   3659       0.09      1.008
 14433       CTL2    452   POPC    C34   3660      -0.18     12.011
 14434       HAL2    452   POPC    H4X   3660       0.09      1.008
 14435       HAL2    452   POPC    H4Y   3660       0.09      1.008
 14436       CTL2    452   POPC    C35   3661      -0.18     12.011
 14437       HAL2    452   POPC    H5X   3661       0.09      1.008
 14438       HAL2    452   POPC    H5Y   3661       0.09      1.008
 14439       CTL2    452   POPC    C36   3662      -0.18     12.011
 14440       HAL2    452   POPC    H6X   3662       0.09      1.008
 14441       HAL2    452   POPC    H6Y   3662       0.09      1.008
 14442       CTL2    452   POPC    C37   3663      -0.18     12.011
 14443       HAL2    452   POPC    H7X   3663       0.09      1.008
 14444       HAL2    452   POPC    H7Y   3663       0.09      1.008
 14445       CTL2    452   POPC    C38   3664      -0.18     12.011
 14446       HAL2    452   POPC    H8X   3664       0.09      1.008
 14447       HAL2    452   POPC    H8Y   3664       0.09      1.008
 14448       CTL2    452   POPC    C39   3665      -0.18     12.011
 14449       HAL2    452   POPC    H9X   3665       0.09      1.008
 14450       HAL2    452   POPC    H9Y   3665       0.09      1.008
 14451       CTL2    452   POPC   C310   3666      -0.18     12.011
 14452       HAL2    452   POPC   H10X   3666       0.09      1.008
 14453       HAL2    452   POPC   H10Y   3666       0.09      1.008
 14454       CTL2    452   POPC   C311   3667      -0.18     12.011
 14455       HAL2    452   POPC   H11X   3667       0.09      1.008
 14456       HAL2    452   POPC   H11Y   3667       0.09      1.008
 14457       CTL2    452   POPC   C312   3668      -0.18     12.011
 14458       HAL2    452   POPC   H12X   3668       0.09      1.008
 14459       HAL2    452   POPC   H12Y   3668       0.09      1.008
 14460       CTL2    452   POPC   C313   3669      -0.18     12.011
 14461       HAL2    452   POPC   H13X   3669       0.09      1.008
 14462       HAL2    452   POPC   H13Y   3669       0.09      1.008
 14463       CTL2    452   POPC   C314   3670      -0.18     12.011
 14464       HAL2    452   POPC   H14X   3670       0.09      1.008
 14465       HAL2    452   POPC   H14Y   3670       0.09      1.008
 14466       CTL2    452   POPC   C315   3671      -0.18     12.011
 14467       HAL2    452   POPC   H15X   3671       0.09      1.008
 14468       HAL2    452   POPC   H15Y   3671       0.09      1.008
 14469       CTL3    452   POPC   C316   3672      -0.27     12.011
 14470       HAL3    452   POPC   H16X   3672       0.09      1.008
 14471       HAL3    452   POPC   H16Y   3672       0.09      1.008
 14472       HAL3    452   POPC   H16Z   3672       0.09      1.008   ; qtot 0
; residue 453 POPC rtp POPC q  0.0
 14473        NTL    453   POPC      N   3673       -0.6     14.007
 14474       CTL2    453   POPC    C12   3673       -0.1     12.011
 14475         HL    453   POPC   H12A   3673       0.25      1.008
 14476         HL    453   POPC   H12B   3673       0.25      1.008
 14477       CTL5    453   POPC    C13   3673      -0.35     12.011
 14478         HL    453   POPC   H13A   3673       0.25      1.008
 14479         HL    453   POPC   H13B   3673       0.25      1.008
 14480         HL    453   POPC   H13C   3673       0.25      1.008
 14481       CTL5    453   POPC    C14   3673      -0.35     12.011
 14482         HL    453   POPC   H14A   3673       0.25      1.008
 14483         HL    453   POPC   H14B   3673       0.25      1.008
 14484         HL    453   POPC   H14C   3673       0.25      1.008
 14485       CTL5    453   POPC    C15   3673      -0.35     12.011
 14486         HL    453   POPC   H15A   3673       0.25      1.008
 14487         HL    453   POPC   H15B   3673       0.25      1.008
 14488         HL    453   POPC   H15C   3673       0.25      1.008
 14489       CTL2    453   POPC    C11   3674      -0.08     12.011
 14490       HAL2    453   POPC   H11A   3674       0.09      1.008
 14491       HAL2    453   POPC   H11B   3674       0.09      1.008
 14492         PL    453   POPC      P   3674        1.5     30.974
 14493        O2L    453   POPC    O13   3674      -0.78    15.9994
 14494        O2L    453   POPC    O14   3674      -0.78    15.9994
 14495       OSLP    453   POPC    O12   3674      -0.57    15.9994
 14496       OSLP    453   POPC    O11   3674      -0.57    15.9994
 14497       CTL2    453   POPC     C1   3674      -0.08     12.011
 14498       HAL2    453   POPC     HA   3674       0.09      1.008
 14499       HAL2    453   POPC     HB   3674       0.09      1.008
 14500       CTL1    453   POPC     C2   3675       0.17     12.011
 14501       HAL1    453   POPC     HS   3675       0.09      1.008
 14502        OSL    453   POPC    O21   3675      -0.49    15.9994
 14503         CL    453   POPC    C21   3675        0.9     12.011
 14504        OBL    453   POPC    O22   3675      -0.63    15.9994
 14505       CTL2    453   POPC    C22   3675      -0.22     12.011
 14506       HAL2    453   POPC    H2R   3675       0.09      1.008
 14507       HAL2    453   POPC    H2S   3675       0.09      1.008
 14508       CTL2    453   POPC     C3   3676       0.08     12.011
 14509       HAL2    453   POPC     HX   3676       0.09      1.008
 14510       HAL2    453   POPC     HY   3676       0.09      1.008
 14511        OSL    453   POPC    O31   3676      -0.49    15.9994
 14512         CL    453   POPC    C31   3676        0.9     12.011
 14513        OBL    453   POPC    O32   3676      -0.63    15.9994
 14514       CTL2    453   POPC    C32   3676      -0.22     12.011
 14515       HAL2    453   POPC    H2X   3676       0.09      1.008
 14516       HAL2    453   POPC    H2Y   3676       0.09      1.008
 14517       CTL2    453   POPC    C23   3677      -0.18     12.011
 14518       HAL2    453   POPC    H3R   3677       0.09      1.008
 14519       HAL2    453   POPC    H3S   3677       0.09      1.008
 14520       CTL2    453   POPC    C24   3678      -0.18     12.011
 14521       HAL2    453   POPC    H4R   3678       0.09      1.008
 14522       HAL2    453   POPC    H4S   3678       0.09      1.008
 14523       CTL2    453   POPC    C25   3679      -0.18     12.011
 14524       HAL2    453   POPC    H5R   3679       0.09      1.008
 14525       HAL2    453   POPC    H5S   3679       0.09      1.008
 14526       CTL2    453   POPC    C26   3680      -0.18     12.011
 14527       HAL2    453   POPC    H6R   3680       0.09      1.008
 14528       HAL2    453   POPC    H6S   3680       0.09      1.008
 14529       CTL2    453   POPC    C27   3681      -0.18     12.011
 14530       HAL2    453   POPC    H7R   3681       0.09      1.008
 14531       HAL2    453   POPC    H7S   3681       0.09      1.008
 14532       CTL2    453   POPC    C28   3682      -0.18     12.011
 14533       HAL2    453   POPC    H8R   3682       0.09      1.008
 14534       HAL2    453   POPC    H8S   3682       0.09      1.008
 14535       CEL1    453   POPC    C29   3683      -0.15     12.011
 14536       HEL1    453   POPC    H91   3683       0.15      1.008
 14537       CEL1    453   POPC   C210   3684      -0.15     12.011
 14538       HEL1    453   POPC   H101   3684       0.15      1.008
 14539       CTL2    453   POPC   C211   3685      -0.18     12.011
 14540       HAL2    453   POPC   H11R   3685       0.09      1.008
 14541       HAL2    453   POPC   H11S   3685       0.09      1.008
 14542       CTL2    453   POPC   C212   3686      -0.18     12.011
 14543       HAL2    453   POPC   H12R   3686       0.09      1.008
 14544       HAL2    453   POPC   H12S   3686       0.09      1.008
 14545       CTL2    453   POPC   C213   3687      -0.18     12.011
 14546       HAL2    453   POPC   H13R   3687       0.09      1.008
 14547       HAL2    453   POPC   H13S   3687       0.09      1.008
 14548       CTL2    453   POPC   C214   3688      -0.18     12.011
 14549       HAL2    453   POPC   H14R   3688       0.09      1.008
 14550       HAL2    453   POPC   H14S   3688       0.09      1.008
 14551       CTL2    453   POPC   C215   3689      -0.18     12.011
 14552       HAL2    453   POPC   H15R   3689       0.09      1.008
 14553       HAL2    453   POPC   H15S   3689       0.09      1.008
 14554       CTL2    453   POPC   C216   3690      -0.18     12.011
 14555       HAL2    453   POPC   H16R   3690       0.09      1.008
 14556       HAL2    453   POPC   H16S   3690       0.09      1.008
 14557       CTL2    453   POPC   C217   3691      -0.18     12.011
 14558       HAL2    453   POPC   H17R   3691       0.09      1.008
 14559       HAL2    453   POPC   H17S   3691       0.09      1.008
 14560       CTL3    453   POPC   C218   3692      -0.27     12.011
 14561       HAL3    453   POPC   H18R   3692       0.09      1.008
 14562       HAL3    453   POPC   H18S   3692       0.09      1.008
 14563       HAL3    453   POPC   H18T   3692       0.09      1.008
 14564       CTL2    453   POPC    C33   3693      -0.18     12.011
 14565       HAL2    453   POPC    H3X   3693       0.09      1.008
 14566       HAL2    453   POPC    H3Y   3693       0.09      1.008
 14567       CTL2    453   POPC    C34   3694      -0.18     12.011
 14568       HAL2    453   POPC    H4X   3694       0.09      1.008
 14569       HAL2    453   POPC    H4Y   3694       0.09      1.008
 14570       CTL2    453   POPC    C35   3695      -0.18     12.011
 14571       HAL2    453   POPC    H5X   3695       0.09      1.008
 14572       HAL2    453   POPC    H5Y   3695       0.09      1.008
 14573       CTL2    453   POPC    C36   3696      -0.18     12.011
 14574       HAL2    453   POPC    H6X   3696       0.09      1.008
 14575       HAL2    453   POPC    H6Y   3696       0.09      1.008
 14576       CTL2    453   POPC    C37   3697      -0.18     12.011
 14577       HAL2    453   POPC    H7X   3697       0.09      1.008
 14578       HAL2    453   POPC    H7Y   3697       0.09      1.008
 14579       CTL2    453   POPC    C38   3698      -0.18     12.011
 14580       HAL2    453   POPC    H8X   3698       0.09      1.008
 14581       HAL2    453   POPC    H8Y   3698       0.09      1.008
 14582       CTL2    453   POPC    C39   3699      -0.18     12.011
 14583       HAL2    453   POPC    H9X   3699       0.09      1.008
 14584       HAL2    453   POPC    H9Y   3699       0.09      1.008
 14585       CTL2    453   POPC   C310   3700      -0.18     12.011
 14586       HAL2    453   POPC   H10X   3700       0.09      1.008
 14587       HAL2    453   POPC   H10Y   3700       0.09      1.008
 14588       CTL2    453   POPC   C311   3701      -0.18     12.011
 14589       HAL2    453   POPC   H11X   3701       0.09      1.008
 14590       HAL2    453   POPC   H11Y   3701       0.09      1.008
 14591       CTL2    453   POPC   C312   3702      -0.18     12.011
 14592       HAL2    453   POPC   H12X   3702       0.09      1.008
 14593       HAL2    453   POPC   H12Y   3702       0.09      1.008
 14594       CTL2    453   POPC   C313   3703      -0.18     12.011
 14595       HAL2    453   POPC   H13X   3703       0.09      1.008
 14596       HAL2    453   POPC   H13Y   3703       0.09      1.008
 14597       CTL2    453   POPC   C314   3704      -0.18     12.011
 14598       HAL2    453   POPC   H14X   3704       0.09      1.008
 14599       HAL2    453   POPC   H14Y   3704       0.09      1.008
 14600       CTL2    453   POPC   C315   3705      -0.18     12.011
 14601       HAL2    453   POPC   H15X   3705       0.09      1.008
 14602       HAL2    453   POPC   H15Y   3705       0.09      1.008
 14603       CTL3    453   POPC   C316   3706      -0.27     12.011
 14604       HAL3    453   POPC   H16X   3706       0.09      1.008
 14605       HAL3    453   POPC   H16Y   3706       0.09      1.008
 14606       HAL3    453   POPC   H16Z   3706       0.09      1.008   ; qtot 0
; residue 454 POPC rtp POPC q  0.0
 14607        NTL    454   POPC      N   3707       -0.6     14.007
 14608       CTL2    454   POPC    C12   3707       -0.1     12.011
 14609         HL    454   POPC   H12A   3707       0.25      1.008
 14610         HL    454   POPC   H12B   3707       0.25      1.008
 14611       CTL5    454   POPC    C13   3707      -0.35     12.011
 14612         HL    454   POPC   H13A   3707       0.25      1.008
 14613         HL    454   POPC   H13B   3707       0.25      1.008
 14614         HL    454   POPC   H13C   3707       0.25      1.008
 14615       CTL5    454   POPC    C14   3707      -0.35     12.011
 14616         HL    454   POPC   H14A   3707       0.25      1.008
 14617         HL    454   POPC   H14B   3707       0.25      1.008
 14618         HL    454   POPC   H14C   3707       0.25      1.008
 14619       CTL5    454   POPC    C15   3707      -0.35     12.011
 14620         HL    454   POPC   H15A   3707       0.25      1.008
 14621         HL    454   POPC   H15B   3707       0.25      1.008
 14622         HL    454   POPC   H15C   3707       0.25      1.008
 14623       CTL2    454   POPC    C11   3708      -0.08     12.011
 14624       HAL2    454   POPC   H11A   3708       0.09      1.008
 14625       HAL2    454   POPC   H11B   3708       0.09      1.008
 14626         PL    454   POPC      P   3708        1.5     30.974
 14627        O2L    454   POPC    O13   3708      -0.78    15.9994
 14628        O2L    454   POPC    O14   3708      -0.78    15.9994
 14629       OSLP    454   POPC    O12   3708      -0.57    15.9994
 14630       OSLP    454   POPC    O11   3708      -0.57    15.9994
 14631       CTL2    454   POPC     C1   3708      -0.08     12.011
 14632       HAL2    454   POPC     HA   3708       0.09      1.008
 14633       HAL2    454   POPC     HB   3708       0.09      1.008
 14634       CTL1    454   POPC     C2   3709       0.17     12.011
 14635       HAL1    454   POPC     HS   3709       0.09      1.008
 14636        OSL    454   POPC    O21   3709      -0.49    15.9994
 14637         CL    454   POPC    C21   3709        0.9     12.011
 14638        OBL    454   POPC    O22   3709      -0.63    15.9994
 14639       CTL2    454   POPC    C22   3709      -0.22     12.011
 14640       HAL2    454   POPC    H2R   3709       0.09      1.008
 14641       HAL2    454   POPC    H2S   3709       0.09      1.008
 14642       CTL2    454   POPC     C3   3710       0.08     12.011
 14643       HAL2    454   POPC     HX   3710       0.09      1.008
 14644       HAL2    454   POPC     HY   3710       0.09      1.008
 14645        OSL    454   POPC    O31   3710      -0.49    15.9994
 14646         CL    454   POPC    C31   3710        0.9     12.011
 14647        OBL    454   POPC    O32   3710      -0.63    15.9994
 14648       CTL2    454   POPC    C32   3710      -0.22     12.011
 14649       HAL2    454   POPC    H2X   3710       0.09      1.008
 14650       HAL2    454   POPC    H2Y   3710       0.09      1.008
 14651       CTL2    454   POPC    C23   3711      -0.18     12.011
 14652       HAL2    454   POPC    H3R   3711       0.09      1.008
 14653       HAL2    454   POPC    H3S   3711       0.09      1.008
 14654       CTL2    454   POPC    C24   3712      -0.18     12.011
 14655       HAL2    454   POPC    H4R   3712       0.09      1.008
 14656       HAL2    454   POPC    H4S   3712       0.09      1.008
 14657       CTL2    454   POPC    C25   3713      -0.18     12.011
 14658       HAL2    454   POPC    H5R   3713       0.09      1.008
 14659       HAL2    454   POPC    H5S   3713       0.09      1.008
 14660       CTL2    454   POPC    C26   3714      -0.18     12.011
 14661       HAL2    454   POPC    H6R   3714       0.09      1.008
 14662       HAL2    454   POPC    H6S   3714       0.09      1.008
 14663       CTL2    454   POPC    C27   3715      -0.18     12.011
 14664       HAL2    454   POPC    H7R   3715       0.09      1.008
 14665       HAL2    454   POPC    H7S   3715       0.09      1.008
 14666       CTL2    454   POPC    C28   3716      -0.18     12.011
 14667       HAL2    454   POPC    H8R   3716       0.09      1.008
 14668       HAL2    454   POPC    H8S   3716       0.09      1.008
 14669       CEL1    454   POPC    C29   3717      -0.15     12.011
 14670       HEL1    454   POPC    H91   3717       0.15      1.008
 14671       CEL1    454   POPC   C210   3718      -0.15     12.011
 14672       HEL1    454   POPC   H101   3718       0.15      1.008
 14673       CTL2    454   POPC   C211   3719      -0.18     12.011
 14674       HAL2    454   POPC   H11R   3719       0.09      1.008
 14675       HAL2    454   POPC   H11S   3719       0.09      1.008
 14676       CTL2    454   POPC   C212   3720      -0.18     12.011
 14677       HAL2    454   POPC   H12R   3720       0.09      1.008
 14678       HAL2    454   POPC   H12S   3720       0.09      1.008
 14679       CTL2    454   POPC   C213   3721      -0.18     12.011
 14680       HAL2    454   POPC   H13R   3721       0.09      1.008
 14681       HAL2    454   POPC   H13S   3721       0.09      1.008
 14682       CTL2    454   POPC   C214   3722      -0.18     12.011
 14683       HAL2    454   POPC   H14R   3722       0.09      1.008
 14684       HAL2    454   POPC   H14S   3722       0.09      1.008
 14685       CTL2    454   POPC   C215   3723      -0.18     12.011
 14686       HAL2    454   POPC   H15R   3723       0.09      1.008
 14687       HAL2    454   POPC   H15S   3723       0.09      1.008
 14688       CTL2    454   POPC   C216   3724      -0.18     12.011
 14689       HAL2    454   POPC   H16R   3724       0.09      1.008
 14690       HAL2    454   POPC   H16S   3724       0.09      1.008
 14691       CTL2    454   POPC   C217   3725      -0.18     12.011
 14692       HAL2    454   POPC   H17R   3725       0.09      1.008
 14693       HAL2    454   POPC   H17S   3725       0.09      1.008
 14694       CTL3    454   POPC   C218   3726      -0.27     12.011
 14695       HAL3    454   POPC   H18R   3726       0.09      1.008
 14696       HAL3    454   POPC   H18S   3726       0.09      1.008
 14697       HAL3    454   POPC   H18T   3726       0.09      1.008
 14698       CTL2    454   POPC    C33   3727      -0.18     12.011
 14699       HAL2    454   POPC    H3X   3727       0.09      1.008
 14700       HAL2    454   POPC    H3Y   3727       0.09      1.008
 14701       CTL2    454   POPC    C34   3728      -0.18     12.011
 14702       HAL2    454   POPC    H4X   3728       0.09      1.008
 14703       HAL2    454   POPC    H4Y   3728       0.09      1.008
 14704       CTL2    454   POPC    C35   3729      -0.18     12.011
 14705       HAL2    454   POPC    H5X   3729       0.09      1.008
 14706       HAL2    454   POPC    H5Y   3729       0.09      1.008
 14707       CTL2    454   POPC    C36   3730      -0.18     12.011
 14708       HAL2    454   POPC    H6X   3730       0.09      1.008
 14709       HAL2    454   POPC    H6Y   3730       0.09      1.008
 14710       CTL2    454   POPC    C37   3731      -0.18     12.011
 14711       HAL2    454   POPC    H7X   3731       0.09      1.008
 14712       HAL2    454   POPC    H7Y   3731       0.09      1.008
 14713       CTL2    454   POPC    C38   3732      -0.18     12.011
 14714       HAL2    454   POPC    H8X   3732       0.09      1.008
 14715       HAL2    454   POPC    H8Y   3732       0.09      1.008
 14716       CTL2    454   POPC    C39   3733      -0.18     12.011
 14717       HAL2    454   POPC    H9X   3733       0.09      1.008
 14718       HAL2    454   POPC    H9Y   3733       0.09      1.008
 14719       CTL2    454   POPC   C310   3734      -0.18     12.011
 14720       HAL2    454   POPC   H10X   3734       0.09      1.008
 14721       HAL2    454   POPC   H10Y   3734       0.09      1.008
 14722       CTL2    454   POPC   C311   3735      -0.18     12.011
 14723       HAL2    454   POPC   H11X   3735       0.09      1.008
 14724       HAL2    454   POPC   H11Y   3735       0.09      1.008
 14725       CTL2    454   POPC   C312   3736      -0.18     12.011
 14726       HAL2    454   POPC   H12X   3736       0.09      1.008
 14727       HAL2    454   POPC   H12Y   3736       0.09      1.008
 14728       CTL2    454   POPC   C313   3737      -0.18     12.011
 14729       HAL2    454   POPC   H13X   3737       0.09      1.008
 14730       HAL2    454   POPC   H13Y   3737       0.09      1.008
 14731       CTL2    454   POPC   C314   3738      -0.18     12.011
 14732       HAL2    454   POPC   H14X   3738       0.09      1.008
 14733       HAL2    454   POPC   H14Y   3738       0.09      1.008
 14734       CTL2    454   POPC   C315   3739      -0.18     12.011
 14735       HAL2    454   POPC   H15X   3739       0.09      1.008
 14736       HAL2    454   POPC   H15Y   3739       0.09      1.008
 14737       CTL3    454   POPC   C316   3740      -0.27     12.011
 14738       HAL3    454   POPC   H16X   3740       0.09      1.008
 14739       HAL3    454   POPC   H16Y   3740       0.09      1.008
 14740       HAL3    454   POPC   H16Z   3740       0.09      1.008   ; qtot 0
; residue 455 POPC rtp POPC q  0.0
 14741        NTL    455   POPC      N   3741       -0.6     14.007
 14742       CTL2    455   POPC    C12   3741       -0.1     12.011
 14743         HL    455   POPC   H12A   3741       0.25      1.008
 14744         HL    455   POPC   H12B   3741       0.25      1.008
 14745       CTL5    455   POPC    C13   3741      -0.35     12.011
 14746         HL    455   POPC   H13A   3741       0.25      1.008
 14747         HL    455   POPC   H13B   3741       0.25      1.008
 14748         HL    455   POPC   H13C   3741       0.25      1.008
 14749       CTL5    455   POPC    C14   3741      -0.35     12.011
 14750         HL    455   POPC   H14A   3741       0.25      1.008
 14751         HL    455   POPC   H14B   3741       0.25      1.008
 14752         HL    455   POPC   H14C   3741       0.25      1.008
 14753       CTL5    455   POPC    C15   3741      -0.35     12.011
 14754         HL    455   POPC   H15A   3741       0.25      1.008
 14755         HL    455   POPC   H15B   3741       0.25      1.008
 14756         HL    455   POPC   H15C   3741       0.25      1.008
 14757       CTL2    455   POPC    C11   3742      -0.08     12.011
 14758       HAL2    455   POPC   H11A   3742       0.09      1.008
 14759       HAL2    455   POPC   H11B   3742       0.09      1.008
 14760         PL    455   POPC      P   3742        1.5     30.974
 14761        O2L    455   POPC    O13   3742      -0.78    15.9994
 14762        O2L    455   POPC    O14   3742      -0.78    15.9994
 14763       OSLP    455   POPC    O12   3742      -0.57    15.9994
 14764       OSLP    455   POPC    O11   3742      -0.57    15.9994
 14765       CTL2    455   POPC     C1   3742      -0.08     12.011
 14766       HAL2    455   POPC     HA   3742       0.09      1.008
 14767       HAL2    455   POPC     HB   3742       0.09      1.008
 14768       CTL1    455   POPC     C2   3743       0.17     12.011
 14769       HAL1    455   POPC     HS   3743       0.09      1.008
 14770        OSL    455   POPC    O21   3743      -0.49    15.9994
 14771         CL    455   POPC    C21   3743        0.9     12.011
 14772        OBL    455   POPC    O22   3743      -0.63    15.9994
 14773       CTL2    455   POPC    C22   3743      -0.22     12.011
 14774       HAL2    455   POPC    H2R   3743       0.09      1.008
 14775       HAL2    455   POPC    H2S   3743       0.09      1.008
 14776       CTL2    455   POPC     C3   3744       0.08     12.011
 14777       HAL2    455   POPC     HX   3744       0.09      1.008
 14778       HAL2    455   POPC     HY   3744       0.09      1.008
 14779        OSL    455   POPC    O31   3744      -0.49    15.9994
 14780         CL    455   POPC    C31   3744        0.9     12.011
 14781        OBL    455   POPC    O32   3744      -0.63    15.9994
 14782       CTL2    455   POPC    C32   3744      -0.22     12.011
 14783       HAL2    455   POPC    H2X   3744       0.09      1.008
 14784       HAL2    455   POPC    H2Y   3744       0.09      1.008
 14785       CTL2    455   POPC    C23   3745      -0.18     12.011
 14786       HAL2    455   POPC    H3R   3745       0.09      1.008
 14787       HAL2    455   POPC    H3S   3745       0.09      1.008
 14788       CTL2    455   POPC    C24   3746      -0.18     12.011
 14789       HAL2    455   POPC    H4R   3746       0.09      1.008
 14790       HAL2    455   POPC    H4S   3746       0.09      1.008
 14791       CTL2    455   POPC    C25   3747      -0.18     12.011
 14792       HAL2    455   POPC    H5R   3747       0.09      1.008
 14793       HAL2    455   POPC    H5S   3747       0.09      1.008
 14794       CTL2    455   POPC    C26   3748      -0.18     12.011
 14795       HAL2    455   POPC    H6R   3748       0.09      1.008
 14796       HAL2    455   POPC    H6S   3748       0.09      1.008
 14797       CTL2    455   POPC    C27   3749      -0.18     12.011
 14798       HAL2    455   POPC    H7R   3749       0.09      1.008
 14799       HAL2    455   POPC    H7S   3749       0.09      1.008
 14800       CTL2    455   POPC    C28   3750      -0.18     12.011
 14801       HAL2    455   POPC    H8R   3750       0.09      1.008
 14802       HAL2    455   POPC    H8S   3750       0.09      1.008
 14803       CEL1    455   POPC    C29   3751      -0.15     12.011
 14804       HEL1    455   POPC    H91   3751       0.15      1.008
 14805       CEL1    455   POPC   C210   3752      -0.15     12.011
 14806       HEL1    455   POPC   H101   3752       0.15      1.008
 14807       CTL2    455   POPC   C211   3753      -0.18     12.011
 14808       HAL2    455   POPC   H11R   3753       0.09      1.008
 14809       HAL2    455   POPC   H11S   3753       0.09      1.008
 14810       CTL2    455   POPC   C212   3754      -0.18     12.011
 14811       HAL2    455   POPC   H12R   3754       0.09      1.008
 14812       HAL2    455   POPC   H12S   3754       0.09      1.008
 14813       CTL2    455   POPC   C213   3755      -0.18     12.011
 14814       HAL2    455   POPC   H13R   3755       0.09      1.008
 14815       HAL2    455   POPC   H13S   3755       0.09      1.008
 14816       CTL2    455   POPC   C214   3756      -0.18     12.011
 14817       HAL2    455   POPC   H14R   3756       0.09      1.008
 14818       HAL2    455   POPC   H14S   3756       0.09      1.008
 14819       CTL2    455   POPC   C215   3757      -0.18     12.011
 14820       HAL2    455   POPC   H15R   3757       0.09      1.008
 14821       HAL2    455   POPC   H15S   3757       0.09      1.008
 14822       CTL2    455   POPC   C216   3758      -0.18     12.011
 14823       HAL2    455   POPC   H16R   3758       0.09      1.008
 14824       HAL2    455   POPC   H16S   3758       0.09      1.008
 14825       CTL2    455   POPC   C217   3759      -0.18     12.011
 14826       HAL2    455   POPC   H17R   3759       0.09      1.008
 14827       HAL2    455   POPC   H17S   3759       0.09      1.008
 14828       CTL3    455   POPC   C218   3760      -0.27     12.011
 14829       HAL3    455   POPC   H18R   3760       0.09      1.008
 14830       HAL3    455   POPC   H18S   3760       0.09      1.008
 14831       HAL3    455   POPC   H18T   3760       0.09      1.008
 14832       CTL2    455   POPC    C33   3761      -0.18     12.011
 14833       HAL2    455   POPC    H3X   3761       0.09      1.008
 14834       HAL2    455   POPC    H3Y   3761       0.09      1.008
 14835       CTL2    455   POPC    C34   3762      -0.18     12.011
 14836       HAL2    455   POPC    H4X   3762       0.09      1.008
 14837       HAL2    455   POPC    H4Y   3762       0.09      1.008
 14838       CTL2    455   POPC    C35   3763      -0.18     12.011
 14839       HAL2    455   POPC    H5X   3763       0.09      1.008
 14840       HAL2    455   POPC    H5Y   3763       0.09      1.008
 14841       CTL2    455   POPC    C36   3764      -0.18     12.011
 14842       HAL2    455   POPC    H6X   3764       0.09      1.008
 14843       HAL2    455   POPC    H6Y   3764       0.09      1.008
 14844       CTL2    455   POPC    C37   3765      -0.18     12.011
 14845       HAL2    455   POPC    H7X   3765       0.09      1.008
 14846       HAL2    455   POPC    H7Y   3765       0.09      1.008
 14847       CTL2    455   POPC    C38   3766      -0.18     12.011
 14848       HAL2    455   POPC    H8X   3766       0.09      1.008
 14849       HAL2    455   POPC    H8Y   3766       0.09      1.008
 14850       CTL2    455   POPC    C39   3767      -0.18     12.011
 14851       HAL2    455   POPC    H9X   3767       0.09      1.008
 14852       HAL2    455   POPC    H9Y   3767       0.09      1.008
 14853       CTL2    455   POPC   C310   3768      -0.18     12.011
 14854       HAL2    455   POPC   H10X   3768       0.09      1.008
 14855       HAL2    455   POPC   H10Y   3768       0.09      1.008
 14856       CTL2    455   POPC   C311   3769      -0.18     12.011
 14857       HAL2    455   POPC   H11X   3769       0.09      1.008
 14858       HAL2    455   POPC   H11Y   3769       0.09      1.008
 14859       CTL2    455   POPC   C312   3770      -0.18     12.011
 14860       HAL2    455   POPC   H12X   3770       0.09      1.008
 14861       HAL2    455   POPC   H12Y   3770       0.09      1.008
 14862       CTL2    455   POPC   C313   3771      -0.18     12.011
 14863       HAL2    455   POPC   H13X   3771       0.09      1.008
 14864       HAL2    455   POPC   H13Y   3771       0.09      1.008
 14865       CTL2    455   POPC   C314   3772      -0.18     12.011
 14866       HAL2    455   POPC   H14X   3772       0.09      1.008
 14867       HAL2    455   POPC   H14Y   3772       0.09      1.008
 14868       CTL2    455   POPC   C315   3773      -0.18     12.011
 14869       HAL2    455   POPC   H15X   3773       0.09      1.008
 14870       HAL2    455   POPC   H15Y   3773       0.09      1.008
 14871       CTL3    455   POPC   C316   3774      -0.27     12.011
 14872       HAL3    455   POPC   H16X   3774       0.09      1.008
 14873       HAL3    455   POPC   H16Y   3774       0.09      1.008
 14874       HAL3    455   POPC   H16Z   3774       0.09      1.008   ; qtot 0
; residue 456 POPC rtp POPC q  0.0
 14875        NTL    456   POPC      N   3775       -0.6     14.007
 14876       CTL2    456   POPC    C12   3775       -0.1     12.011
 14877         HL    456   POPC   H12A   3775       0.25      1.008
 14878         HL    456   POPC   H12B   3775       0.25      1.008
 14879       CTL5    456   POPC    C13   3775      -0.35     12.011
 14880         HL    456   POPC   H13A   3775       0.25      1.008
 14881         HL    456   POPC   H13B   3775       0.25      1.008
 14882         HL    456   POPC   H13C   3775       0.25      1.008
 14883       CTL5    456   POPC    C14   3775      -0.35     12.011
 14884         HL    456   POPC   H14A   3775       0.25      1.008
 14885         HL    456   POPC   H14B   3775       0.25      1.008
 14886         HL    456   POPC   H14C   3775       0.25      1.008
 14887       CTL5    456   POPC    C15   3775      -0.35     12.011
 14888         HL    456   POPC   H15A   3775       0.25      1.008
 14889         HL    456   POPC   H15B   3775       0.25      1.008
 14890         HL    456   POPC   H15C   3775       0.25      1.008
 14891       CTL2    456   POPC    C11   3776      -0.08     12.011
 14892       HAL2    456   POPC   H11A   3776       0.09      1.008
 14893       HAL2    456   POPC   H11B   3776       0.09      1.008
 14894         PL    456   POPC      P   3776        1.5     30.974
 14895        O2L    456   POPC    O13   3776      -0.78    15.9994
 14896        O2L    456   POPC    O14   3776      -0.78    15.9994
 14897       OSLP    456   POPC    O12   3776      -0.57    15.9994
 14898       OSLP    456   POPC    O11   3776      -0.57    15.9994
 14899       CTL2    456   POPC     C1   3776      -0.08     12.011
 14900       HAL2    456   POPC     HA   3776       0.09      1.008
 14901       HAL2    456   POPC     HB   3776       0.09      1.008
 14902       CTL1    456   POPC     C2   3777       0.17     12.011
 14903       HAL1    456   POPC     HS   3777       0.09      1.008
 14904        OSL    456   POPC    O21   3777      -0.49    15.9994
 14905         CL    456   POPC    C21   3777        0.9     12.011
 14906        OBL    456   POPC    O22   3777      -0.63    15.9994
 14907       CTL2    456   POPC    C22   3777      -0.22     12.011
 14908       HAL2    456   POPC    H2R   3777       0.09      1.008
 14909       HAL2    456   POPC    H2S   3777       0.09      1.008
 14910       CTL2    456   POPC     C3   3778       0.08     12.011
 14911       HAL2    456   POPC     HX   3778       0.09      1.008
 14912       HAL2    456   POPC     HY   3778       0.09      1.008
 14913        OSL    456   POPC    O31   3778      -0.49    15.9994
 14914         CL    456   POPC    C31   3778        0.9     12.011
 14915        OBL    456   POPC    O32   3778      -0.63    15.9994
 14916       CTL2    456   POPC    C32   3778      -0.22     12.011
 14917       HAL2    456   POPC    H2X   3778       0.09      1.008
 14918       HAL2    456   POPC    H2Y   3778       0.09      1.008
 14919       CTL2    456   POPC    C23   3779      -0.18     12.011
 14920       HAL2    456   POPC    H3R   3779       0.09      1.008
 14921       HAL2    456   POPC    H3S   3779       0.09      1.008
 14922       CTL2    456   POPC    C24   3780      -0.18     12.011
 14923       HAL2    456   POPC    H4R   3780       0.09      1.008
 14924       HAL2    456   POPC    H4S   3780       0.09      1.008
 14925       CTL2    456   POPC    C25   3781      -0.18     12.011
 14926       HAL2    456   POPC    H5R   3781       0.09      1.008
 14927       HAL2    456   POPC    H5S   3781       0.09      1.008
 14928       CTL2    456   POPC    C26   3782      -0.18     12.011
 14929       HAL2    456   POPC    H6R   3782       0.09      1.008
 14930       HAL2    456   POPC    H6S   3782       0.09      1.008
 14931       CTL2    456   POPC    C27   3783      -0.18     12.011
 14932       HAL2    456   POPC    H7R   3783       0.09      1.008
 14933       HAL2    456   POPC    H7S   3783       0.09      1.008
 14934       CTL2    456   POPC    C28   3784      -0.18     12.011
 14935       HAL2    456   POPC    H8R   3784       0.09      1.008
 14936       HAL2    456   POPC    H8S   3784       0.09      1.008
 14937       CEL1    456   POPC    C29   3785      -0.15     12.011
 14938       HEL1    456   POPC    H91   3785       0.15      1.008
 14939       CEL1    456   POPC   C210   3786      -0.15     12.011
 14940       HEL1    456   POPC   H101   3786       0.15      1.008
 14941       CTL2    456   POPC   C211   3787      -0.18     12.011
 14942       HAL2    456   POPC   H11R   3787       0.09      1.008
 14943       HAL2    456   POPC   H11S   3787       0.09      1.008
 14944       CTL2    456   POPC   C212   3788      -0.18     12.011
 14945       HAL2    456   POPC   H12R   3788       0.09      1.008
 14946       HAL2    456   POPC   H12S   3788       0.09      1.008
 14947       CTL2    456   POPC   C213   3789      -0.18     12.011
 14948       HAL2    456   POPC   H13R   3789       0.09      1.008
 14949       HAL2    456   POPC   H13S   3789       0.09      1.008
 14950       CTL2    456   POPC   C214   3790      -0.18     12.011
 14951       HAL2    456   POPC   H14R   3790       0.09      1.008
 14952       HAL2    456   POPC   H14S   3790       0.09      1.008
 14953       CTL2    456   POPC   C215   3791      -0.18     12.011
 14954       HAL2    456   POPC   H15R   3791       0.09      1.008
 14955       HAL2    456   POPC   H15S   3791       0.09      1.008
 14956       CTL2    456   POPC   C216   3792      -0.18     12.011
 14957       HAL2    456   POPC   H16R   3792       0.09      1.008
 14958       HAL2    456   POPC   H16S   3792       0.09      1.008
 14959       CTL2    456   POPC   C217   3793      -0.18     12.011
 14960       HAL2    456   POPC   H17R   3793       0.09      1.008
 14961       HAL2    456   POPC   H17S   3793       0.09      1.008
 14962       CTL3    456   POPC   C218   3794      -0.27     12.011
 14963       HAL3    456   POPC   H18R   3794       0.09      1.008
 14964       HAL3    456   POPC   H18S   3794       0.09      1.008
 14965       HAL3    456   POPC   H18T   3794       0.09      1.008
 14966       CTL2    456   POPC    C33   3795      -0.18     12.011
 14967       HAL2    456   POPC    H3X   3795       0.09      1.008
 14968       HAL2    456   POPC    H3Y   3795       0.09      1.008
 14969       CTL2    456   POPC    C34   3796      -0.18     12.011
 14970       HAL2    456   POPC    H4X   3796       0.09      1.008
 14971       HAL2    456   POPC    H4Y   3796       0.09      1.008
 14972       CTL2    456   POPC    C35   3797      -0.18     12.011
 14973       HAL2    456   POPC    H5X   3797       0.09      1.008
 14974       HAL2    456   POPC    H5Y   3797       0.09      1.008
 14975       CTL2    456   POPC    C36   3798      -0.18     12.011
 14976       HAL2    456   POPC    H6X   3798       0.09      1.008
 14977       HAL2    456   POPC    H6Y   3798       0.09      1.008
 14978       CTL2    456   POPC    C37   3799      -0.18     12.011
 14979       HAL2    456   POPC    H7X   3799       0.09      1.008
 14980       HAL2    456   POPC    H7Y   3799       0.09      1.008
 14981       CTL2    456   POPC    C38   3800      -0.18     12.011
 14982       HAL2    456   POPC    H8X   3800       0.09      1.008
 14983       HAL2    456   POPC    H8Y   3800       0.09      1.008
 14984       CTL2    456   POPC    C39   3801      -0.18     12.011
 14985       HAL2    456   POPC    H9X   3801       0.09      1.008
 14986       HAL2    456   POPC    H9Y   3801       0.09      1.008
 14987       CTL2    456   POPC   C310   3802      -0.18     12.011
 14988       HAL2    456   POPC   H10X   3802       0.09      1.008
 14989       HAL2    456   POPC   H10Y   3802       0.09      1.008
 14990       CTL2    456   POPC   C311   3803      -0.18     12.011
 14991       HAL2    456   POPC   H11X   3803       0.09      1.008
 14992       HAL2    456   POPC   H11Y   3803       0.09      1.008
 14993       CTL2    456   POPC   C312   3804      -0.18     12.011
 14994       HAL2    456   POPC   H12X   3804       0.09      1.008
 14995       HAL2    456   POPC   H12Y   3804       0.09      1.008
 14996       CTL2    456   POPC   C313   3805      -0.18     12.011
 14997       HAL2    456   POPC   H13X   3805       0.09      1.008
 14998       HAL2    456   POPC   H13Y   3805       0.09      1.008
 14999       CTL2    456   POPC   C314   3806      -0.18     12.011
 15000       HAL2    456   POPC   H14X   3806       0.09      1.008
 15001       HAL2    456   POPC   H14Y   3806       0.09      1.008
 15002       CTL2    456   POPC   C315   3807      -0.18     12.011
 15003       HAL2    456   POPC   H15X   3807       0.09      1.008
 15004       HAL2    456   POPC   H15Y   3807       0.09      1.008
 15005       CTL3    456   POPC   C316   3808      -0.27     12.011
 15006       HAL3    456   POPC   H16X   3808       0.09      1.008
 15007       HAL3    456   POPC   H16Y   3808       0.09      1.008
 15008       HAL3    456   POPC   H16Z   3808       0.09      1.008   ; qtot 0
; residue 457 POPC rtp POPC q  0.0
 15009        NTL    457   POPC      N   3809       -0.6     14.007
 15010       CTL2    457   POPC    C12   3809       -0.1     12.011
 15011         HL    457   POPC   H12A   3809       0.25      1.008
 15012         HL    457   POPC   H12B   3809       0.25      1.008
 15013       CTL5    457   POPC    C13   3809      -0.35     12.011
 15014         HL    457   POPC   H13A   3809       0.25      1.008
 15015         HL    457   POPC   H13B   3809       0.25      1.008
 15016         HL    457   POPC   H13C   3809       0.25      1.008
 15017       CTL5    457   POPC    C14   3809      -0.35     12.011
 15018         HL    457   POPC   H14A   3809       0.25      1.008
 15019         HL    457   POPC   H14B   3809       0.25      1.008
 15020         HL    457   POPC   H14C   3809       0.25      1.008
 15021       CTL5    457   POPC    C15   3809      -0.35     12.011
 15022         HL    457   POPC   H15A   3809       0.25      1.008
 15023         HL    457   POPC   H15B   3809       0.25      1.008
 15024         HL    457   POPC   H15C   3809       0.25      1.008
 15025       CTL2    457   POPC    C11   3810      -0.08     12.011
 15026       HAL2    457   POPC   H11A   3810       0.09      1.008
 15027       HAL2    457   POPC   H11B   3810       0.09      1.008
 15028         PL    457   POPC      P   3810        1.5     30.974
 15029        O2L    457   POPC    O13   3810      -0.78    15.9994
 15030        O2L    457   POPC    O14   3810      -0.78    15.9994
 15031       OSLP    457   POPC    O12   3810      -0.57    15.9994
 15032       OSLP    457   POPC    O11   3810      -0.57    15.9994
 15033       CTL2    457   POPC     C1   3810      -0.08     12.011
 15034       HAL2    457   POPC     HA   3810       0.09      1.008
 15035       HAL2    457   POPC     HB   3810       0.09      1.008
 15036       CTL1    457   POPC     C2   3811       0.17     12.011
 15037       HAL1    457   POPC     HS   3811       0.09      1.008
 15038        OSL    457   POPC    O21   3811      -0.49    15.9994
 15039         CL    457   POPC    C21   3811        0.9     12.011
 15040        OBL    457   POPC    O22   3811      -0.63    15.9994
 15041       CTL2    457   POPC    C22   3811      -0.22     12.011
 15042       HAL2    457   POPC    H2R   3811       0.09      1.008
 15043       HAL2    457   POPC    H2S   3811       0.09      1.008
 15044       CTL2    457   POPC     C3   3812       0.08     12.011
 15045       HAL2    457   POPC     HX   3812       0.09      1.008
 15046       HAL2    457   POPC     HY   3812       0.09      1.008
 15047        OSL    457   POPC    O31   3812      -0.49    15.9994
 15048         CL    457   POPC    C31   3812        0.9     12.011
 15049        OBL    457   POPC    O32   3812      -0.63    15.9994
 15050       CTL2    457   POPC    C32   3812      -0.22     12.011
 15051       HAL2    457   POPC    H2X   3812       0.09      1.008
 15052       HAL2    457   POPC    H2Y   3812       0.09      1.008
 15053       CTL2    457   POPC    C23   3813      -0.18     12.011
 15054       HAL2    457   POPC    H3R   3813       0.09      1.008
 15055       HAL2    457   POPC    H3S   3813       0.09      1.008
 15056       CTL2    457   POPC    C24   3814      -0.18     12.011
 15057       HAL2    457   POPC    H4R   3814       0.09      1.008
 15058       HAL2    457   POPC    H4S   3814       0.09      1.008
 15059       CTL2    457   POPC    C25   3815      -0.18     12.011
 15060       HAL2    457   POPC    H5R   3815       0.09      1.008
 15061       HAL2    457   POPC    H5S   3815       0.09      1.008
 15062       CTL2    457   POPC    C26   3816      -0.18     12.011
 15063       HAL2    457   POPC    H6R   3816       0.09      1.008
 15064       HAL2    457   POPC    H6S   3816       0.09      1.008
 15065       CTL2    457   POPC    C27   3817      -0.18     12.011
 15066       HAL2    457   POPC    H7R   3817       0.09      1.008
 15067       HAL2    457   POPC    H7S   3817       0.09      1.008
 15068       CTL2    457   POPC    C28   3818      -0.18     12.011
 15069       HAL2    457   POPC    H8R   3818       0.09      1.008
 15070       HAL2    457   POPC    H8S   3818       0.09      1.008
 15071       CEL1    457   POPC    C29   3819      -0.15     12.011
 15072       HEL1    457   POPC    H91   3819       0.15      1.008
 15073       CEL1    457   POPC   C210   3820      -0.15     12.011
 15074       HEL1    457   POPC   H101   3820       0.15      1.008
 15075       CTL2    457   POPC   C211   3821      -0.18     12.011
 15076       HAL2    457   POPC   H11R   3821       0.09      1.008
 15077       HAL2    457   POPC   H11S   3821       0.09      1.008
 15078       CTL2    457   POPC   C212   3822      -0.18     12.011
 15079       HAL2    457   POPC   H12R   3822       0.09      1.008
 15080       HAL2    457   POPC   H12S   3822       0.09      1.008
 15081       CTL2    457   POPC   C213   3823      -0.18     12.011
 15082       HAL2    457   POPC   H13R   3823       0.09      1.008
 15083       HAL2    457   POPC   H13S   3823       0.09      1.008
 15084       CTL2    457   POPC   C214   3824      -0.18     12.011
 15085       HAL2    457   POPC   H14R   3824       0.09      1.008
 15086       HAL2    457   POPC   H14S   3824       0.09      1.008
 15087       CTL2    457   POPC   C215   3825      -0.18     12.011
 15088       HAL2    457   POPC   H15R   3825       0.09      1.008
 15089       HAL2    457   POPC   H15S   3825       0.09      1.008
 15090       CTL2    457   POPC   C216   3826      -0.18     12.011
 15091       HAL2    457   POPC   H16R   3826       0.09      1.008
 15092       HAL2    457   POPC   H16S   3826       0.09      1.008
 15093       CTL2    457   POPC   C217   3827      -0.18     12.011
 15094       HAL2    457   POPC   H17R   3827       0.09      1.008
 15095       HAL2    457   POPC   H17S   3827       0.09      1.008
 15096       CTL3    457   POPC   C218   3828      -0.27     12.011
 15097       HAL3    457   POPC   H18R   3828       0.09      1.008
 15098       HAL3    457   POPC   H18S   3828       0.09      1.008
 15099       HAL3    457   POPC   H18T   3828       0.09      1.008
 15100       CTL2    457   POPC    C33   3829      -0.18     12.011
 15101       HAL2    457   POPC    H3X   3829       0.09      1.008
 15102       HAL2    457   POPC    H3Y   3829       0.09      1.008
 15103       CTL2    457   POPC    C34   3830      -0.18     12.011
 15104       HAL2    457   POPC    H4X   3830       0.09      1.008
 15105       HAL2    457   POPC    H4Y   3830       0.09      1.008
 15106       CTL2    457   POPC    C35   3831      -0.18     12.011
 15107       HAL2    457   POPC    H5X   3831       0.09      1.008
 15108       HAL2    457   POPC    H5Y   3831       0.09      1.008
 15109       CTL2    457   POPC    C36   3832      -0.18     12.011
 15110       HAL2    457   POPC    H6X   3832       0.09      1.008
 15111       HAL2    457   POPC    H6Y   3832       0.09      1.008
 15112       CTL2    457   POPC    C37   3833      -0.18     12.011
 15113       HAL2    457   POPC    H7X   3833       0.09      1.008
 15114       HAL2    457   POPC    H7Y   3833       0.09      1.008
 15115       CTL2    457   POPC    C38   3834      -0.18     12.011
 15116       HAL2    457   POPC    H8X   3834       0.09      1.008
 15117       HAL2    457   POPC    H8Y   3834       0.09      1.008
 15118       CTL2    457   POPC    C39   3835      -0.18     12.011
 15119       HAL2    457   POPC    H9X   3835       0.09      1.008
 15120       HAL2    457   POPC    H9Y   3835       0.09      1.008
 15121       CTL2    457   POPC   C310   3836      -0.18     12.011
 15122       HAL2    457   POPC   H10X   3836       0.09      1.008
 15123       HAL2    457   POPC   H10Y   3836       0.09      1.008
 15124       CTL2    457   POPC   C311   3837      -0.18     12.011
 15125       HAL2    457   POPC   H11X   3837       0.09      1.008
 15126       HAL2    457   POPC   H11Y   3837       0.09      1.008
 15127       CTL2    457   POPC   C312   3838      -0.18     12.011
 15128       HAL2    457   POPC   H12X   3838       0.09      1.008
 15129       HAL2    457   POPC   H12Y   3838       0.09      1.008
 15130       CTL2    457   POPC   C313   3839      -0.18     12.011
 15131       HAL2    457   POPC   H13X   3839       0.09      1.008
 15132       HAL2    457   POPC   H13Y   3839       0.09      1.008
 15133       CTL2    457   POPC   C314   3840      -0.18     12.011
 15134       HAL2    457   POPC   H14X   3840       0.09      1.008
 15135       HAL2    457   POPC   H14Y   3840       0.09      1.008
 15136       CTL2    457   POPC   C315   3841      -0.18     12.011
 15137       HAL2    457   POPC   H15X   3841       0.09      1.008
 15138       HAL2    457   POPC   H15Y   3841       0.09      1.008
 15139       CTL3    457   POPC   C316   3842      -0.27     12.011
 15140       HAL3    457   POPC   H16X   3842       0.09      1.008
 15141       HAL3    457   POPC   H16Y   3842       0.09      1.008
 15142       HAL3    457   POPC   H16Z   3842       0.09      1.008   ; qtot 0
; residue 458 POPC rtp POPC q  0.0
 15143        NTL    458   POPC      N   3843       -0.6     14.007
 15144       CTL2    458   POPC    C12   3843       -0.1     12.011
 15145         HL    458   POPC   H12A   3843       0.25      1.008
 15146         HL    458   POPC   H12B   3843       0.25      1.008
 15147       CTL5    458   POPC    C13   3843      -0.35     12.011
 15148         HL    458   POPC   H13A   3843       0.25      1.008
 15149         HL    458   POPC   H13B   3843       0.25      1.008
 15150         HL    458   POPC   H13C   3843       0.25      1.008
 15151       CTL5    458   POPC    C14   3843      -0.35     12.011
 15152         HL    458   POPC   H14A   3843       0.25      1.008
 15153         HL    458   POPC   H14B   3843       0.25      1.008
 15154         HL    458   POPC   H14C   3843       0.25      1.008
 15155       CTL5    458   POPC    C15   3843      -0.35     12.011
 15156         HL    458   POPC   H15A   3843       0.25      1.008
 15157         HL    458   POPC   H15B   3843       0.25      1.008
 15158         HL    458   POPC   H15C   3843       0.25      1.008
 15159       CTL2    458   POPC    C11   3844      -0.08     12.011
 15160       HAL2    458   POPC   H11A   3844       0.09      1.008
 15161       HAL2    458   POPC   H11B   3844       0.09      1.008
 15162         PL    458   POPC      P   3844        1.5     30.974
 15163        O2L    458   POPC    O13   3844      -0.78    15.9994
 15164        O2L    458   POPC    O14   3844      -0.78    15.9994
 15165       OSLP    458   POPC    O12   3844      -0.57    15.9994
 15166       OSLP    458   POPC    O11   3844      -0.57    15.9994
 15167       CTL2    458   POPC     C1   3844      -0.08     12.011
 15168       HAL2    458   POPC     HA   3844       0.09      1.008
 15169       HAL2    458   POPC     HB   3844       0.09      1.008
 15170       CTL1    458   POPC     C2   3845       0.17     12.011
 15171       HAL1    458   POPC     HS   3845       0.09      1.008
 15172        OSL    458   POPC    O21   3845      -0.49    15.9994
 15173         CL    458   POPC    C21   3845        0.9     12.011
 15174        OBL    458   POPC    O22   3845      -0.63    15.9994
 15175       CTL2    458   POPC    C22   3845      -0.22     12.011
 15176       HAL2    458   POPC    H2R   3845       0.09      1.008
 15177       HAL2    458   POPC    H2S   3845       0.09      1.008
 15178       CTL2    458   POPC     C3   3846       0.08     12.011
 15179       HAL2    458   POPC     HX   3846       0.09      1.008
 15180       HAL2    458   POPC     HY   3846       0.09      1.008
 15181        OSL    458   POPC    O31   3846      -0.49    15.9994
 15182         CL    458   POPC    C31   3846        0.9     12.011
 15183        OBL    458   POPC    O32   3846      -0.63    15.9994
 15184       CTL2    458   POPC    C32   3846      -0.22     12.011
 15185       HAL2    458   POPC    H2X   3846       0.09      1.008
 15186       HAL2    458   POPC    H2Y   3846       0.09      1.008
 15187       CTL2    458   POPC    C23   3847      -0.18     12.011
 15188       HAL2    458   POPC    H3R   3847       0.09      1.008
 15189       HAL2    458   POPC    H3S   3847       0.09      1.008
 15190       CTL2    458   POPC    C24   3848      -0.18     12.011
 15191       HAL2    458   POPC    H4R   3848       0.09      1.008
 15192       HAL2    458   POPC    H4S   3848       0.09      1.008
 15193       CTL2    458   POPC    C25   3849      -0.18     12.011
 15194       HAL2    458   POPC    H5R   3849       0.09      1.008
 15195       HAL2    458   POPC    H5S   3849       0.09      1.008
 15196       CTL2    458   POPC    C26   3850      -0.18     12.011
 15197       HAL2    458   POPC    H6R   3850       0.09      1.008
 15198       HAL2    458   POPC    H6S   3850       0.09      1.008
 15199       CTL2    458   POPC    C27   3851      -0.18     12.011
 15200       HAL2    458   POPC    H7R   3851       0.09      1.008
 15201       HAL2    458   POPC    H7S   3851       0.09      1.008
 15202       CTL2    458   POPC    C28   3852      -0.18     12.011
 15203       HAL2    458   POPC    H8R   3852       0.09      1.008
 15204       HAL2    458   POPC    H8S   3852       0.09      1.008
 15205       CEL1    458   POPC    C29   3853      -0.15     12.011
 15206       HEL1    458   POPC    H91   3853       0.15      1.008
 15207       CEL1    458   POPC   C210   3854      -0.15     12.011
 15208       HEL1    458   POPC   H101   3854       0.15      1.008
 15209       CTL2    458   POPC   C211   3855      -0.18     12.011
 15210       HAL2    458   POPC   H11R   3855       0.09      1.008
 15211       HAL2    458   POPC   H11S   3855       0.09      1.008
 15212       CTL2    458   POPC   C212   3856      -0.18     12.011
 15213       HAL2    458   POPC   H12R   3856       0.09      1.008
 15214       HAL2    458   POPC   H12S   3856       0.09      1.008
 15215       CTL2    458   POPC   C213   3857      -0.18     12.011
 15216       HAL2    458   POPC   H13R   3857       0.09      1.008
 15217       HAL2    458   POPC   H13S   3857       0.09      1.008
 15218       CTL2    458   POPC   C214   3858      -0.18     12.011
 15219       HAL2    458   POPC   H14R   3858       0.09      1.008
 15220       HAL2    458   POPC   H14S   3858       0.09      1.008
 15221       CTL2    458   POPC   C215   3859      -0.18     12.011
 15222       HAL2    458   POPC   H15R   3859       0.09      1.008
 15223       HAL2    458   POPC   H15S   3859       0.09      1.008
 15224       CTL2    458   POPC   C216   3860      -0.18     12.011
 15225       HAL2    458   POPC   H16R   3860       0.09      1.008
 15226       HAL2    458   POPC   H16S   3860       0.09      1.008
 15227       CTL2    458   POPC   C217   3861      -0.18     12.011
 15228       HAL2    458   POPC   H17R   3861       0.09      1.008
 15229       HAL2    458   POPC   H17S   3861       0.09      1.008
 15230       CTL3    458   POPC   C218   3862      -0.27     12.011
 15231       HAL3    458   POPC   H18R   3862       0.09      1.008
 15232       HAL3    458   POPC   H18S   3862       0.09      1.008
 15233       HAL3    458   POPC   H18T   3862       0.09      1.008
 15234       CTL2    458   POPC    C33   3863      -0.18     12.011
 15235       HAL2    458   POPC    H3X   3863       0.09      1.008
 15236       HAL2    458   POPC    H3Y   3863       0.09      1.008
 15237       CTL2    458   POPC    C34   3864      -0.18     12.011
 15238       HAL2    458   POPC    H4X   3864       0.09      1.008
 15239       HAL2    458   POPC    H4Y   3864       0.09      1.008
 15240       CTL2    458   POPC    C35   3865      -0.18     12.011
 15241       HAL2    458   POPC    H5X   3865       0.09      1.008
 15242       HAL2    458   POPC    H5Y   3865       0.09      1.008
 15243       CTL2    458   POPC    C36   3866      -0.18     12.011
 15244       HAL2    458   POPC    H6X   3866       0.09      1.008
 15245       HAL2    458   POPC    H6Y   3866       0.09      1.008
 15246       CTL2    458   POPC    C37   3867      -0.18     12.011
 15247       HAL2    458   POPC    H7X   3867       0.09      1.008
 15248       HAL2    458   POPC    H7Y   3867       0.09      1.008
 15249       CTL2    458   POPC    C38   3868      -0.18     12.011
 15250       HAL2    458   POPC    H8X   3868       0.09      1.008
 15251       HAL2    458   POPC    H8Y   3868       0.09      1.008
 15252       CTL2    458   POPC    C39   3869      -0.18     12.011
 15253       HAL2    458   POPC    H9X   3869       0.09      1.008
 15254       HAL2    458   POPC    H9Y   3869       0.09      1.008
 15255       CTL2    458   POPC   C310   3870      -0.18     12.011
 15256       HAL2    458   POPC   H10X   3870       0.09      1.008
 15257       HAL2    458   POPC   H10Y   3870       0.09      1.008
 15258       CTL2    458   POPC   C311   3871      -0.18     12.011
 15259       HAL2    458   POPC   H11X   3871       0.09      1.008
 15260       HAL2    458   POPC   H11Y   3871       0.09      1.008
 15261       CTL2    458   POPC   C312   3872      -0.18     12.011
 15262       HAL2    458   POPC   H12X   3872       0.09      1.008
 15263       HAL2    458   POPC   H12Y   3872       0.09      1.008
 15264       CTL2    458   POPC   C313   3873      -0.18     12.011
 15265       HAL2    458   POPC   H13X   3873       0.09      1.008
 15266       HAL2    458   POPC   H13Y   3873       0.09      1.008
 15267       CTL2    458   POPC   C314   3874      -0.18     12.011
 15268       HAL2    458   POPC   H14X   3874       0.09      1.008
 15269       HAL2    458   POPC   H14Y   3874       0.09      1.008
 15270       CTL2    458   POPC   C315   3875      -0.18     12.011
 15271       HAL2    458   POPC   H15X   3875       0.09      1.008
 15272       HAL2    458   POPC   H15Y   3875       0.09      1.008
 15273       CTL3    458   POPC   C316   3876      -0.27     12.011
 15274       HAL3    458   POPC   H16X   3876       0.09      1.008
 15275       HAL3    458   POPC   H16Y   3876       0.09      1.008
 15276       HAL3    458   POPC   H16Z   3876       0.09      1.008   ; qtot 0
; residue 459 POPC rtp POPC q  0.0
 15277        NTL    459   POPC      N   3877       -0.6     14.007
 15278       CTL2    459   POPC    C12   3877       -0.1     12.011
 15279         HL    459   POPC   H12A   3877       0.25      1.008
 15280         HL    459   POPC   H12B   3877       0.25      1.008
 15281       CTL5    459   POPC    C13   3877      -0.35     12.011
 15282         HL    459   POPC   H13A   3877       0.25      1.008
 15283         HL    459   POPC   H13B   3877       0.25      1.008
 15284         HL    459   POPC   H13C   3877       0.25      1.008
 15285       CTL5    459   POPC    C14   3877      -0.35     12.011
 15286         HL    459   POPC   H14A   3877       0.25      1.008
 15287         HL    459   POPC   H14B   3877       0.25      1.008
 15288         HL    459   POPC   H14C   3877       0.25      1.008
 15289       CTL5    459   POPC    C15   3877      -0.35     12.011
 15290         HL    459   POPC   H15A   3877       0.25      1.008
 15291         HL    459   POPC   H15B   3877       0.25      1.008
 15292         HL    459   POPC   H15C   3877       0.25      1.008
 15293       CTL2    459   POPC    C11   3878      -0.08     12.011
 15294       HAL2    459   POPC   H11A   3878       0.09      1.008
 15295       HAL2    459   POPC   H11B   3878       0.09      1.008
 15296         PL    459   POPC      P   3878        1.5     30.974
 15297        O2L    459   POPC    O13   3878      -0.78    15.9994
 15298        O2L    459   POPC    O14   3878      -0.78    15.9994
 15299       OSLP    459   POPC    O12   3878      -0.57    15.9994
 15300       OSLP    459   POPC    O11   3878      -0.57    15.9994
 15301       CTL2    459   POPC     C1   3878      -0.08     12.011
 15302       HAL2    459   POPC     HA   3878       0.09      1.008
 15303       HAL2    459   POPC     HB   3878       0.09      1.008
 15304       CTL1    459   POPC     C2   3879       0.17     12.011
 15305       HAL1    459   POPC     HS   3879       0.09      1.008
 15306        OSL    459   POPC    O21   3879      -0.49    15.9994
 15307         CL    459   POPC    C21   3879        0.9     12.011
 15308        OBL    459   POPC    O22   3879      -0.63    15.9994
 15309       CTL2    459   POPC    C22   3879      -0.22     12.011
 15310       HAL2    459   POPC    H2R   3879       0.09      1.008
 15311       HAL2    459   POPC    H2S   3879       0.09      1.008
 15312       CTL2    459   POPC     C3   3880       0.08     12.011
 15313       HAL2    459   POPC     HX   3880       0.09      1.008
 15314       HAL2    459   POPC     HY   3880       0.09      1.008
 15315        OSL    459   POPC    O31   3880      -0.49    15.9994
 15316         CL    459   POPC    C31   3880        0.9     12.011
 15317        OBL    459   POPC    O32   3880      -0.63    15.9994
 15318       CTL2    459   POPC    C32   3880      -0.22     12.011
 15319       HAL2    459   POPC    H2X   3880       0.09      1.008
 15320       HAL2    459   POPC    H2Y   3880       0.09      1.008
 15321       CTL2    459   POPC    C23   3881      -0.18     12.011
 15322       HAL2    459   POPC    H3R   3881       0.09      1.008
 15323       HAL2    459   POPC    H3S   3881       0.09      1.008
 15324       CTL2    459   POPC    C24   3882      -0.18     12.011
 15325       HAL2    459   POPC    H4R   3882       0.09      1.008
 15326       HAL2    459   POPC    H4S   3882       0.09      1.008
 15327       CTL2    459   POPC    C25   3883      -0.18     12.011
 15328       HAL2    459   POPC    H5R   3883       0.09      1.008
 15329       HAL2    459   POPC    H5S   3883       0.09      1.008
 15330       CTL2    459   POPC    C26   3884      -0.18     12.011
 15331       HAL2    459   POPC    H6R   3884       0.09      1.008
 15332       HAL2    459   POPC    H6S   3884       0.09      1.008
 15333       CTL2    459   POPC    C27   3885      -0.18     12.011
 15334       HAL2    459   POPC    H7R   3885       0.09      1.008
 15335       HAL2    459   POPC    H7S   3885       0.09      1.008
 15336       CTL2    459   POPC    C28   3886      -0.18     12.011
 15337       HAL2    459   POPC    H8R   3886       0.09      1.008
 15338       HAL2    459   POPC    H8S   3886       0.09      1.008
 15339       CEL1    459   POPC    C29   3887      -0.15     12.011
 15340       HEL1    459   POPC    H91   3887       0.15      1.008
 15341       CEL1    459   POPC   C210   3888      -0.15     12.011
 15342       HEL1    459   POPC   H101   3888       0.15      1.008
 15343       CTL2    459   POPC   C211   3889      -0.18     12.011
 15344       HAL2    459   POPC   H11R   3889       0.09      1.008
 15345       HAL2    459   POPC   H11S   3889       0.09      1.008
 15346       CTL2    459   POPC   C212   3890      -0.18     12.011
 15347       HAL2    459   POPC   H12R   3890       0.09      1.008
 15348       HAL2    459   POPC   H12S   3890       0.09      1.008
 15349       CTL2    459   POPC   C213   3891      -0.18     12.011
 15350       HAL2    459   POPC   H13R   3891       0.09      1.008
 15351       HAL2    459   POPC   H13S   3891       0.09      1.008
 15352       CTL2    459   POPC   C214   3892      -0.18     12.011
 15353       HAL2    459   POPC   H14R   3892       0.09      1.008
 15354       HAL2    459   POPC   H14S   3892       0.09      1.008
 15355       CTL2    459   POPC   C215   3893      -0.18     12.011
 15356       HAL2    459   POPC   H15R   3893       0.09      1.008
 15357       HAL2    459   POPC   H15S   3893       0.09      1.008
 15358       CTL2    459   POPC   C216   3894      -0.18     12.011
 15359       HAL2    459   POPC   H16R   3894       0.09      1.008
 15360       HAL2    459   POPC   H16S   3894       0.09      1.008
 15361       CTL2    459   POPC   C217   3895      -0.18     12.011
 15362       HAL2    459   POPC   H17R   3895       0.09      1.008
 15363       HAL2    459   POPC   H17S   3895       0.09      1.008
 15364       CTL3    459   POPC   C218   3896      -0.27     12.011
 15365       HAL3    459   POPC   H18R   3896       0.09      1.008
 15366       HAL3    459   POPC   H18S   3896       0.09      1.008
 15367       HAL3    459   POPC   H18T   3896       0.09      1.008
 15368       CTL2    459   POPC    C33   3897      -0.18     12.011
 15369       HAL2    459   POPC    H3X   3897       0.09      1.008
 15370       HAL2    459   POPC    H3Y   3897       0.09      1.008
 15371       CTL2    459   POPC    C34   3898      -0.18     12.011
 15372       HAL2    459   POPC    H4X   3898       0.09      1.008
 15373       HAL2    459   POPC    H4Y   3898       0.09      1.008
 15374       CTL2    459   POPC    C35   3899      -0.18     12.011
 15375       HAL2    459   POPC    H5X   3899       0.09      1.008
 15376       HAL2    459   POPC    H5Y   3899       0.09      1.008
 15377       CTL2    459   POPC    C36   3900      -0.18     12.011
 15378       HAL2    459   POPC    H6X   3900       0.09      1.008
 15379       HAL2    459   POPC    H6Y   3900       0.09      1.008
 15380       CTL2    459   POPC    C37   3901      -0.18     12.011
 15381       HAL2    459   POPC    H7X   3901       0.09      1.008
 15382       HAL2    459   POPC    H7Y   3901       0.09      1.008
 15383       CTL2    459   POPC    C38   3902      -0.18     12.011
 15384       HAL2    459   POPC    H8X   3902       0.09      1.008
 15385       HAL2    459   POPC    H8Y   3902       0.09      1.008
 15386       CTL2    459   POPC    C39   3903      -0.18     12.011
 15387       HAL2    459   POPC    H9X   3903       0.09      1.008
 15388       HAL2    459   POPC    H9Y   3903       0.09      1.008
 15389       CTL2    459   POPC   C310   3904      -0.18     12.011
 15390       HAL2    459   POPC   H10X   3904       0.09      1.008
 15391       HAL2    459   POPC   H10Y   3904       0.09      1.008
 15392       CTL2    459   POPC   C311   3905      -0.18     12.011
 15393       HAL2    459   POPC   H11X   3905       0.09      1.008
 15394       HAL2    459   POPC   H11Y   3905       0.09      1.008
 15395       CTL2    459   POPC   C312   3906      -0.18     12.011
 15396       HAL2    459   POPC   H12X   3906       0.09      1.008
 15397       HAL2    459   POPC   H12Y   3906       0.09      1.008
 15398       CTL2    459   POPC   C313   3907      -0.18     12.011
 15399       HAL2    459   POPC   H13X   3907       0.09      1.008
 15400       HAL2    459   POPC   H13Y   3907       0.09      1.008
 15401       CTL2    459   POPC   C314   3908      -0.18     12.011
 15402       HAL2    459   POPC   H14X   3908       0.09      1.008
 15403       HAL2    459   POPC   H14Y   3908       0.09      1.008
 15404       CTL2    459   POPC   C315   3909      -0.18     12.011
 15405       HAL2    459   POPC   H15X   3909       0.09      1.008
 15406       HAL2    459   POPC   H15Y   3909       0.09      1.008
 15407       CTL3    459   POPC   C316   3910      -0.27     12.011
 15408       HAL3    459   POPC   H16X   3910       0.09      1.008
 15409       HAL3    459   POPC   H16Y   3910       0.09      1.008
 15410       HAL3    459   POPC   H16Z   3910       0.09      1.008   ; qtot 0
; residue 460 POPC rtp POPC q  0.0
 15411        NTL    460   POPC      N   3911       -0.6     14.007
 15412       CTL2    460   POPC    C12   3911       -0.1     12.011
 15413         HL    460   POPC   H12A   3911       0.25      1.008
 15414         HL    460   POPC   H12B   3911       0.25      1.008
 15415       CTL5    460   POPC    C13   3911      -0.35     12.011
 15416         HL    460   POPC   H13A   3911       0.25      1.008
 15417         HL    460   POPC   H13B   3911       0.25      1.008
 15418         HL    460   POPC   H13C   3911       0.25      1.008
 15419       CTL5    460   POPC    C14   3911      -0.35     12.011
 15420         HL    460   POPC   H14A   3911       0.25      1.008
 15421         HL    460   POPC   H14B   3911       0.25      1.008
 15422         HL    460   POPC   H14C   3911       0.25      1.008
 15423       CTL5    460   POPC    C15   3911      -0.35     12.011
 15424         HL    460   POPC   H15A   3911       0.25      1.008
 15425         HL    460   POPC   H15B   3911       0.25      1.008
 15426         HL    460   POPC   H15C   3911       0.25      1.008
 15427       CTL2    460   POPC    C11   3912      -0.08     12.011
 15428       HAL2    460   POPC   H11A   3912       0.09      1.008
 15429       HAL2    460   POPC   H11B   3912       0.09      1.008
 15430         PL    460   POPC      P   3912        1.5     30.974
 15431        O2L    460   POPC    O13   3912      -0.78    15.9994
 15432        O2L    460   POPC    O14   3912      -0.78    15.9994
 15433       OSLP    460   POPC    O12   3912      -0.57    15.9994
 15434       OSLP    460   POPC    O11   3912      -0.57    15.9994
 15435       CTL2    460   POPC     C1   3912      -0.08     12.011
 15436       HAL2    460   POPC     HA   3912       0.09      1.008
 15437       HAL2    460   POPC     HB   3912       0.09      1.008
 15438       CTL1    460   POPC     C2   3913       0.17     12.011
 15439       HAL1    460   POPC     HS   3913       0.09      1.008
 15440        OSL    460   POPC    O21   3913      -0.49    15.9994
 15441         CL    460   POPC    C21   3913        0.9     12.011
 15442        OBL    460   POPC    O22   3913      -0.63    15.9994
 15443       CTL2    460   POPC    C22   3913      -0.22     12.011
 15444       HAL2    460   POPC    H2R   3913       0.09      1.008
 15445       HAL2    460   POPC    H2S   3913       0.09      1.008
 15446       CTL2    460   POPC     C3   3914       0.08     12.011
 15447       HAL2    460   POPC     HX   3914       0.09      1.008
 15448       HAL2    460   POPC     HY   3914       0.09      1.008
 15449        OSL    460   POPC    O31   3914      -0.49    15.9994
 15450         CL    460   POPC    C31   3914        0.9     12.011
 15451        OBL    460   POPC    O32   3914      -0.63    15.9994
 15452       CTL2    460   POPC    C32   3914      -0.22     12.011
 15453       HAL2    460   POPC    H2X   3914       0.09      1.008
 15454       HAL2    460   POPC    H2Y   3914       0.09      1.008
 15455       CTL2    460   POPC    C23   3915      -0.18     12.011
 15456       HAL2    460   POPC    H3R   3915       0.09      1.008
 15457       HAL2    460   POPC    H3S   3915       0.09      1.008
 15458       CTL2    460   POPC    C24   3916      -0.18     12.011
 15459       HAL2    460   POPC    H4R   3916       0.09      1.008
 15460       HAL2    460   POPC    H4S   3916       0.09      1.008
 15461       CTL2    460   POPC    C25   3917      -0.18     12.011
 15462       HAL2    460   POPC    H5R   3917       0.09      1.008
 15463       HAL2    460   POPC    H5S   3917       0.09      1.008
 15464       CTL2    460   POPC    C26   3918      -0.18     12.011
 15465       HAL2    460   POPC    H6R   3918       0.09      1.008
 15466       HAL2    460   POPC    H6S   3918       0.09      1.008
 15467       CTL2    460   POPC    C27   3919      -0.18     12.011
 15468       HAL2    460   POPC    H7R   3919       0.09      1.008
 15469       HAL2    460   POPC    H7S   3919       0.09      1.008
 15470       CTL2    460   POPC    C28   3920      -0.18     12.011
 15471       HAL2    460   POPC    H8R   3920       0.09      1.008
 15472       HAL2    460   POPC    H8S   3920       0.09      1.008
 15473       CEL1    460   POPC    C29   3921      -0.15     12.011
 15474       HEL1    460   POPC    H91   3921       0.15      1.008
 15475       CEL1    460   POPC   C210   3922      -0.15     12.011
 15476       HEL1    460   POPC   H101   3922       0.15      1.008
 15477       CTL2    460   POPC   C211   3923      -0.18     12.011
 15478       HAL2    460   POPC   H11R   3923       0.09      1.008
 15479       HAL2    460   POPC   H11S   3923       0.09      1.008
 15480       CTL2    460   POPC   C212   3924      -0.18     12.011
 15481       HAL2    460   POPC   H12R   3924       0.09      1.008
 15482       HAL2    460   POPC   H12S   3924       0.09      1.008
 15483       CTL2    460   POPC   C213   3925      -0.18     12.011
 15484       HAL2    460   POPC   H13R   3925       0.09      1.008
 15485       HAL2    460   POPC   H13S   3925       0.09      1.008
 15486       CTL2    460   POPC   C214   3926      -0.18     12.011
 15487       HAL2    460   POPC   H14R   3926       0.09      1.008
 15488       HAL2    460   POPC   H14S   3926       0.09      1.008
 15489       CTL2    460   POPC   C215   3927      -0.18     12.011
 15490       HAL2    460   POPC   H15R   3927       0.09      1.008
 15491       HAL2    460   POPC   H15S   3927       0.09      1.008
 15492       CTL2    460   POPC   C216   3928      -0.18     12.011
 15493       HAL2    460   POPC   H16R   3928       0.09      1.008
 15494       HAL2    460   POPC   H16S   3928       0.09      1.008
 15495       CTL2    460   POPC   C217   3929      -0.18     12.011
 15496       HAL2    460   POPC   H17R   3929       0.09      1.008
 15497       HAL2    460   POPC   H17S   3929       0.09      1.008
 15498       CTL3    460   POPC   C218   3930      -0.27     12.011
 15499       HAL3    460   POPC   H18R   3930       0.09      1.008
 15500       HAL3    460   POPC   H18S   3930       0.09      1.008
 15501       HAL3    460   POPC   H18T   3930       0.09      1.008
 15502       CTL2    460   POPC    C33   3931      -0.18     12.011
 15503       HAL2    460   POPC    H3X   3931       0.09      1.008
 15504       HAL2    460   POPC    H3Y   3931       0.09      1.008
 15505       CTL2    460   POPC    C34   3932      -0.18     12.011
 15506       HAL2    460   POPC    H4X   3932       0.09      1.008
 15507       HAL2    460   POPC    H4Y   3932       0.09      1.008
 15508       CTL2    460   POPC    C35   3933      -0.18     12.011
 15509       HAL2    460   POPC    H5X   3933       0.09      1.008
 15510       HAL2    460   POPC    H5Y   3933       0.09      1.008
 15511       CTL2    460   POPC    C36   3934      -0.18     12.011
 15512       HAL2    460   POPC    H6X   3934       0.09      1.008
 15513       HAL2    460   POPC    H6Y   3934       0.09      1.008
 15514       CTL2    460   POPC    C37   3935      -0.18     12.011
 15515       HAL2    460   POPC    H7X   3935       0.09      1.008
 15516       HAL2    460   POPC    H7Y   3935       0.09      1.008
 15517       CTL2    460   POPC    C38   3936      -0.18     12.011
 15518       HAL2    460   POPC    H8X   3936       0.09      1.008
 15519       HAL2    460   POPC    H8Y   3936       0.09      1.008
 15520       CTL2    460   POPC    C39   3937      -0.18     12.011
 15521       HAL2    460   POPC    H9X   3937       0.09      1.008
 15522       HAL2    460   POPC    H9Y   3937       0.09      1.008
 15523       CTL2    460   POPC   C310   3938      -0.18     12.011
 15524       HAL2    460   POPC   H10X   3938       0.09      1.008
 15525       HAL2    460   POPC   H10Y   3938       0.09      1.008
 15526       CTL2    460   POPC   C311   3939      -0.18     12.011
 15527       HAL2    460   POPC   H11X   3939       0.09      1.008
 15528       HAL2    460   POPC   H11Y   3939       0.09      1.008
 15529       CTL2    460   POPC   C312   3940      -0.18     12.011
 15530       HAL2    460   POPC   H12X   3940       0.09      1.008
 15531       HAL2    460   POPC   H12Y   3940       0.09      1.008
 15532       CTL2    460   POPC   C313   3941      -0.18     12.011
 15533       HAL2    460   POPC   H13X   3941       0.09      1.008
 15534       HAL2    460   POPC   H13Y   3941       0.09      1.008
 15535       CTL2    460   POPC   C314   3942      -0.18     12.011
 15536       HAL2    460   POPC   H14X   3942       0.09      1.008
 15537       HAL2    460   POPC   H14Y   3942       0.09      1.008
 15538       CTL2    460   POPC   C315   3943      -0.18     12.011
 15539       HAL2    460   POPC   H15X   3943       0.09      1.008
 15540       HAL2    460   POPC   H15Y   3943       0.09      1.008
 15541       CTL3    460   POPC   C316   3944      -0.27     12.011
 15542       HAL3    460   POPC   H16X   3944       0.09      1.008
 15543       HAL3    460   POPC   H16Y   3944       0.09      1.008
 15544       HAL3    460   POPC   H16Z   3944       0.09      1.008   ; qtot 0
; residue 461 POPC rtp POPC q  0.0
 15545        NTL    461   POPC      N   3945       -0.6     14.007
 15546       CTL2    461   POPC    C12   3945       -0.1     12.011
 15547         HL    461   POPC   H12A   3945       0.25      1.008
 15548         HL    461   POPC   H12B   3945       0.25      1.008
 15549       CTL5    461   POPC    C13   3945      -0.35     12.011
 15550         HL    461   POPC   H13A   3945       0.25      1.008
 15551         HL    461   POPC   H13B   3945       0.25      1.008
 15552         HL    461   POPC   H13C   3945       0.25      1.008
 15553       CTL5    461   POPC    C14   3945      -0.35     12.011
 15554         HL    461   POPC   H14A   3945       0.25      1.008
 15555         HL    461   POPC   H14B   3945       0.25      1.008
 15556         HL    461   POPC   H14C   3945       0.25      1.008
 15557       CTL5    461   POPC    C15   3945      -0.35     12.011
 15558         HL    461   POPC   H15A   3945       0.25      1.008
 15559         HL    461   POPC   H15B   3945       0.25      1.008
 15560         HL    461   POPC   H15C   3945       0.25      1.008
 15561       CTL2    461   POPC    C11   3946      -0.08     12.011
 15562       HAL2    461   POPC   H11A   3946       0.09      1.008
 15563       HAL2    461   POPC   H11B   3946       0.09      1.008
 15564         PL    461   POPC      P   3946        1.5     30.974
 15565        O2L    461   POPC    O13   3946      -0.78    15.9994
 15566        O2L    461   POPC    O14   3946      -0.78    15.9994
 15567       OSLP    461   POPC    O12   3946      -0.57    15.9994
 15568       OSLP    461   POPC    O11   3946      -0.57    15.9994
 15569       CTL2    461   POPC     C1   3946      -0.08     12.011
 15570       HAL2    461   POPC     HA   3946       0.09      1.008
 15571       HAL2    461   POPC     HB   3946       0.09      1.008
 15572       CTL1    461   POPC     C2   3947       0.17     12.011
 15573       HAL1    461   POPC     HS   3947       0.09      1.008
 15574        OSL    461   POPC    O21   3947      -0.49    15.9994
 15575         CL    461   POPC    C21   3947        0.9     12.011
 15576        OBL    461   POPC    O22   3947      -0.63    15.9994
 15577       CTL2    461   POPC    C22   3947      -0.22     12.011
 15578       HAL2    461   POPC    H2R   3947       0.09      1.008
 15579       HAL2    461   POPC    H2S   3947       0.09      1.008
 15580       CTL2    461   POPC     C3   3948       0.08     12.011
 15581       HAL2    461   POPC     HX   3948       0.09      1.008
 15582       HAL2    461   POPC     HY   3948       0.09      1.008
 15583        OSL    461   POPC    O31   3948      -0.49    15.9994
 15584         CL    461   POPC    C31   3948        0.9     12.011
 15585        OBL    461   POPC    O32   3948      -0.63    15.9994
 15586       CTL2    461   POPC    C32   3948      -0.22     12.011
 15587       HAL2    461   POPC    H2X   3948       0.09      1.008
 15588       HAL2    461   POPC    H2Y   3948       0.09      1.008
 15589       CTL2    461   POPC    C23   3949      -0.18     12.011
 15590       HAL2    461   POPC    H3R   3949       0.09      1.008
 15591       HAL2    461   POPC    H3S   3949       0.09      1.008
 15592       CTL2    461   POPC    C24   3950      -0.18     12.011
 15593       HAL2    461   POPC    H4R   3950       0.09      1.008
 15594       HAL2    461   POPC    H4S   3950       0.09      1.008
 15595       CTL2    461   POPC    C25   3951      -0.18     12.011
 15596       HAL2    461   POPC    H5R   3951       0.09      1.008
 15597       HAL2    461   POPC    H5S   3951       0.09      1.008
 15598       CTL2    461   POPC    C26   3952      -0.18     12.011
 15599       HAL2    461   POPC    H6R   3952       0.09      1.008
 15600       HAL2    461   POPC    H6S   3952       0.09      1.008
 15601       CTL2    461   POPC    C27   3953      -0.18     12.011
 15602       HAL2    461   POPC    H7R   3953       0.09      1.008
 15603       HAL2    461   POPC    H7S   3953       0.09      1.008
 15604       CTL2    461   POPC    C28   3954      -0.18     12.011
 15605       HAL2    461   POPC    H8R   3954       0.09      1.008
 15606       HAL2    461   POPC    H8S   3954       0.09      1.008
 15607       CEL1    461   POPC    C29   3955      -0.15     12.011
 15608       HEL1    461   POPC    H91   3955       0.15      1.008
 15609       CEL1    461   POPC   C210   3956      -0.15     12.011
 15610       HEL1    461   POPC   H101   3956       0.15      1.008
 15611       CTL2    461   POPC   C211   3957      -0.18     12.011
 15612       HAL2    461   POPC   H11R   3957       0.09      1.008
 15613       HAL2    461   POPC   H11S   3957       0.09      1.008
 15614       CTL2    461   POPC   C212   3958      -0.18     12.011
 15615       HAL2    461   POPC   H12R   3958       0.09      1.008
 15616       HAL2    461   POPC   H12S   3958       0.09      1.008
 15617       CTL2    461   POPC   C213   3959      -0.18     12.011
 15618       HAL2    461   POPC   H13R   3959       0.09      1.008
 15619       HAL2    461   POPC   H13S   3959       0.09      1.008
 15620       CTL2    461   POPC   C214   3960      -0.18     12.011
 15621       HAL2    461   POPC   H14R   3960       0.09      1.008
 15622       HAL2    461   POPC   H14S   3960       0.09      1.008
 15623       CTL2    461   POPC   C215   3961      -0.18     12.011
 15624       HAL2    461   POPC   H15R   3961       0.09      1.008
 15625       HAL2    461   POPC   H15S   3961       0.09      1.008
 15626       CTL2    461   POPC   C216   3962      -0.18     12.011
 15627       HAL2    461   POPC   H16R   3962       0.09      1.008
 15628       HAL2    461   POPC   H16S   3962       0.09      1.008
 15629       CTL2    461   POPC   C217   3963      -0.18     12.011
 15630       HAL2    461   POPC   H17R   3963       0.09      1.008
 15631       HAL2    461   POPC   H17S   3963       0.09      1.008
 15632       CTL3    461   POPC   C218   3964      -0.27     12.011
 15633       HAL3    461   POPC   H18R   3964       0.09      1.008
 15634       HAL3    461   POPC   H18S   3964       0.09      1.008
 15635       HAL3    461   POPC   H18T   3964       0.09      1.008
 15636       CTL2    461   POPC    C33   3965      -0.18     12.011
 15637       HAL2    461   POPC    H3X   3965       0.09      1.008
 15638       HAL2    461   POPC    H3Y   3965       0.09      1.008
 15639       CTL2    461   POPC    C34   3966      -0.18     12.011
 15640       HAL2    461   POPC    H4X   3966       0.09      1.008
 15641       HAL2    461   POPC    H4Y   3966       0.09      1.008
 15642       CTL2    461   POPC    C35   3967      -0.18     12.011
 15643       HAL2    461   POPC    H5X   3967       0.09      1.008
 15644       HAL2    461   POPC    H5Y   3967       0.09      1.008
 15645       CTL2    461   POPC    C36   3968      -0.18     12.011
 15646       HAL2    461   POPC    H6X   3968       0.09      1.008
 15647       HAL2    461   POPC    H6Y   3968       0.09      1.008
 15648       CTL2    461   POPC    C37   3969      -0.18     12.011
 15649       HAL2    461   POPC    H7X   3969       0.09      1.008
 15650       HAL2    461   POPC    H7Y   3969       0.09      1.008
 15651       CTL2    461   POPC    C38   3970      -0.18     12.011
 15652       HAL2    461   POPC    H8X   3970       0.09      1.008
 15653       HAL2    461   POPC    H8Y   3970       0.09      1.008
 15654       CTL2    461   POPC    C39   3971      -0.18     12.011
 15655       HAL2    461   POPC    H9X   3971       0.09      1.008
 15656       HAL2    461   POPC    H9Y   3971       0.09      1.008
 15657       CTL2    461   POPC   C310   3972      -0.18     12.011
 15658       HAL2    461   POPC   H10X   3972       0.09      1.008
 15659       HAL2    461   POPC   H10Y   3972       0.09      1.008
 15660       CTL2    461   POPC   C311   3973      -0.18     12.011
 15661       HAL2    461   POPC   H11X   3973       0.09      1.008
 15662       HAL2    461   POPC   H11Y   3973       0.09      1.008
 15663       CTL2    461   POPC   C312   3974      -0.18     12.011
 15664       HAL2    461   POPC   H12X   3974       0.09      1.008
 15665       HAL2    461   POPC   H12Y   3974       0.09      1.008
 15666       CTL2    461   POPC   C313   3975      -0.18     12.011
 15667       HAL2    461   POPC   H13X   3975       0.09      1.008
 15668       HAL2    461   POPC   H13Y   3975       0.09      1.008
 15669       CTL2    461   POPC   C314   3976      -0.18     12.011
 15670       HAL2    461   POPC   H14X   3976       0.09      1.008
 15671       HAL2    461   POPC   H14Y   3976       0.09      1.008
 15672       CTL2    461   POPC   C315   3977      -0.18     12.011
 15673       HAL2    461   POPC   H15X   3977       0.09      1.008
 15674       HAL2    461   POPC   H15Y   3977       0.09      1.008
 15675       CTL3    461   POPC   C316   3978      -0.27     12.011
 15676       HAL3    461   POPC   H16X   3978       0.09      1.008
 15677       HAL3    461   POPC   H16Y   3978       0.09      1.008
 15678       HAL3    461   POPC   H16Z   3978       0.09      1.008   ; qtot 0
; residue 462 POPC rtp POPC q  0.0
 15679        NTL    462   POPC      N   3979       -0.6     14.007
 15680       CTL2    462   POPC    C12   3979       -0.1     12.011
 15681         HL    462   POPC   H12A   3979       0.25      1.008
 15682         HL    462   POPC   H12B   3979       0.25      1.008
 15683       CTL5    462   POPC    C13   3979      -0.35     12.011
 15684         HL    462   POPC   H13A   3979       0.25      1.008
 15685         HL    462   POPC   H13B   3979       0.25      1.008
 15686         HL    462   POPC   H13C   3979       0.25      1.008
 15687       CTL5    462   POPC    C14   3979      -0.35     12.011
 15688         HL    462   POPC   H14A   3979       0.25      1.008
 15689         HL    462   POPC   H14B   3979       0.25      1.008
 15690         HL    462   POPC   H14C   3979       0.25      1.008
 15691       CTL5    462   POPC    C15   3979      -0.35     12.011
 15692         HL    462   POPC   H15A   3979       0.25      1.008
 15693         HL    462   POPC   H15B   3979       0.25      1.008
 15694         HL    462   POPC   H15C   3979       0.25      1.008
 15695       CTL2    462   POPC    C11   3980      -0.08     12.011
 15696       HAL2    462   POPC   H11A   3980       0.09      1.008
 15697       HAL2    462   POPC   H11B   3980       0.09      1.008
 15698         PL    462   POPC      P   3980        1.5     30.974
 15699        O2L    462   POPC    O13   3980      -0.78    15.9994
 15700        O2L    462   POPC    O14   3980      -0.78    15.9994
 15701       OSLP    462   POPC    O12   3980      -0.57    15.9994
 15702       OSLP    462   POPC    O11   3980      -0.57    15.9994
 15703       CTL2    462   POPC     C1   3980      -0.08     12.011
 15704       HAL2    462   POPC     HA   3980       0.09      1.008
 15705       HAL2    462   POPC     HB   3980       0.09      1.008
 15706       CTL1    462   POPC     C2   3981       0.17     12.011
 15707       HAL1    462   POPC     HS   3981       0.09      1.008
 15708        OSL    462   POPC    O21   3981      -0.49    15.9994
 15709         CL    462   POPC    C21   3981        0.9     12.011
 15710        OBL    462   POPC    O22   3981      -0.63    15.9994
 15711       CTL2    462   POPC    C22   3981      -0.22     12.011
 15712       HAL2    462   POPC    H2R   3981       0.09      1.008
 15713       HAL2    462   POPC    H2S   3981       0.09      1.008
 15714       CTL2    462   POPC     C3   3982       0.08     12.011
 15715       HAL2    462   POPC     HX   3982       0.09      1.008
 15716       HAL2    462   POPC     HY   3982       0.09      1.008
 15717        OSL    462   POPC    O31   3982      -0.49    15.9994
 15718         CL    462   POPC    C31   3982        0.9     12.011
 15719        OBL    462   POPC    O32   3982      -0.63    15.9994
 15720       CTL2    462   POPC    C32   3982      -0.22     12.011
 15721       HAL2    462   POPC    H2X   3982       0.09      1.008
 15722       HAL2    462   POPC    H2Y   3982       0.09      1.008
 15723       CTL2    462   POPC    C23   3983      -0.18     12.011
 15724       HAL2    462   POPC    H3R   3983       0.09      1.008
 15725       HAL2    462   POPC    H3S   3983       0.09      1.008
 15726       CTL2    462   POPC    C24   3984      -0.18     12.011
 15727       HAL2    462   POPC    H4R   3984       0.09      1.008
 15728       HAL2    462   POPC    H4S   3984       0.09      1.008
 15729       CTL2    462   POPC    C25   3985      -0.18     12.011
 15730       HAL2    462   POPC    H5R   3985       0.09      1.008
 15731       HAL2    462   POPC    H5S   3985       0.09      1.008
 15732       CTL2    462   POPC    C26   3986      -0.18     12.011
 15733       HAL2    462   POPC    H6R   3986       0.09      1.008
 15734       HAL2    462   POPC    H6S   3986       0.09      1.008
 15735       CTL2    462   POPC    C27   3987      -0.18     12.011
 15736       HAL2    462   POPC    H7R   3987       0.09      1.008
 15737       HAL2    462   POPC    H7S   3987       0.09      1.008
 15738       CTL2    462   POPC    C28   3988      -0.18     12.011
 15739       HAL2    462   POPC    H8R   3988       0.09      1.008
 15740       HAL2    462   POPC    H8S   3988       0.09      1.008
 15741       CEL1    462   POPC    C29   3989      -0.15     12.011
 15742       HEL1    462   POPC    H91   3989       0.15      1.008
 15743       CEL1    462   POPC   C210   3990      -0.15     12.011
 15744       HEL1    462   POPC   H101   3990       0.15      1.008
 15745       CTL2    462   POPC   C211   3991      -0.18     12.011
 15746       HAL2    462   POPC   H11R   3991       0.09      1.008
 15747       HAL2    462   POPC   H11S   3991       0.09      1.008
 15748       CTL2    462   POPC   C212   3992      -0.18     12.011
 15749       HAL2    462   POPC   H12R   3992       0.09      1.008
 15750       HAL2    462   POPC   H12S   3992       0.09      1.008
 15751       CTL2    462   POPC   C213   3993      -0.18     12.011
 15752       HAL2    462   POPC   H13R   3993       0.09      1.008
 15753       HAL2    462   POPC   H13S   3993       0.09      1.008
 15754       CTL2    462   POPC   C214   3994      -0.18     12.011
 15755       HAL2    462   POPC   H14R   3994       0.09      1.008
 15756       HAL2    462   POPC   H14S   3994       0.09      1.008
 15757       CTL2    462   POPC   C215   3995      -0.18     12.011
 15758       HAL2    462   POPC   H15R   3995       0.09      1.008
 15759       HAL2    462   POPC   H15S   3995       0.09      1.008
 15760       CTL2    462   POPC   C216   3996      -0.18     12.011
 15761       HAL2    462   POPC   H16R   3996       0.09      1.008
 15762       HAL2    462   POPC   H16S   3996       0.09      1.008
 15763       CTL2    462   POPC   C217   3997      -0.18     12.011
 15764       HAL2    462   POPC   H17R   3997       0.09      1.008
 15765       HAL2    462   POPC   H17S   3997       0.09      1.008
 15766       CTL3    462   POPC   C218   3998      -0.27     12.011
 15767       HAL3    462   POPC   H18R   3998       0.09      1.008
 15768       HAL3    462   POPC   H18S   3998       0.09      1.008
 15769       HAL3    462   POPC   H18T   3998       0.09      1.008
 15770       CTL2    462   POPC    C33   3999      -0.18     12.011
 15771       HAL2    462   POPC    H3X   3999       0.09      1.008
 15772       HAL2    462   POPC    H3Y   3999       0.09      1.008
 15773       CTL2    462   POPC    C34   4000      -0.18     12.011
 15774       HAL2    462   POPC    H4X   4000       0.09      1.008
 15775       HAL2    462   POPC    H4Y   4000       0.09      1.008
 15776       CTL2    462   POPC    C35   4001      -0.18     12.011
 15777       HAL2    462   POPC    H5X   4001       0.09      1.008
 15778       HAL2    462   POPC    H5Y   4001       0.09      1.008
 15779       CTL2    462   POPC    C36   4002      -0.18     12.011
 15780       HAL2    462   POPC    H6X   4002       0.09      1.008
 15781       HAL2    462   POPC    H6Y   4002       0.09      1.008
 15782       CTL2    462   POPC    C37   4003      -0.18     12.011
 15783       HAL2    462   POPC    H7X   4003       0.09      1.008
 15784       HAL2    462   POPC    H7Y   4003       0.09      1.008
 15785       CTL2    462   POPC    C38   4004      -0.18     12.011
 15786       HAL2    462   POPC    H8X   4004       0.09      1.008
 15787       HAL2    462   POPC    H8Y   4004       0.09      1.008
 15788       CTL2    462   POPC    C39   4005      -0.18     12.011
 15789       HAL2    462   POPC    H9X   4005       0.09      1.008
 15790       HAL2    462   POPC    H9Y   4005       0.09      1.008
 15791       CTL2    462   POPC   C310   4006      -0.18     12.011
 15792       HAL2    462   POPC   H10X   4006       0.09      1.008
 15793       HAL2    462   POPC   H10Y   4006       0.09      1.008
 15794       CTL2    462   POPC   C311   4007      -0.18     12.011
 15795       HAL2    462   POPC   H11X   4007       0.09      1.008
 15796       HAL2    462   POPC   H11Y   4007       0.09      1.008
 15797       CTL2    462   POPC   C312   4008      -0.18     12.011
 15798       HAL2    462   POPC   H12X   4008       0.09      1.008
 15799       HAL2    462   POPC   H12Y   4008       0.09      1.008
 15800       CTL2    462   POPC   C313   4009      -0.18     12.011
 15801       HAL2    462   POPC   H13X   4009       0.09      1.008
 15802       HAL2    462   POPC   H13Y   4009       0.09      1.008
 15803       CTL2    462   POPC   C314   4010      -0.18     12.011
 15804       HAL2    462   POPC   H14X   4010       0.09      1.008
 15805       HAL2    462   POPC   H14Y   4010       0.09      1.008
 15806       CTL2    462   POPC   C315   4011      -0.18     12.011
 15807       HAL2    462   POPC   H15X   4011       0.09      1.008
 15808       HAL2    462   POPC   H15Y   4011       0.09      1.008
 15809       CTL3    462   POPC   C316   4012      -0.27     12.011
 15810       HAL3    462   POPC   H16X   4012       0.09      1.008
 15811       HAL3    462   POPC   H16Y   4012       0.09      1.008
 15812       HAL3    462   POPC   H16Z   4012       0.09      1.008   ; qtot 0
; residue 463 POPC rtp POPC q  0.0
 15813        NTL    463   POPC      N   4013       -0.6     14.007
 15814       CTL2    463   POPC    C12   4013       -0.1     12.011
 15815         HL    463   POPC   H12A   4013       0.25      1.008
 15816         HL    463   POPC   H12B   4013       0.25      1.008
 15817       CTL5    463   POPC    C13   4013      -0.35     12.011
 15818         HL    463   POPC   H13A   4013       0.25      1.008
 15819         HL    463   POPC   H13B   4013       0.25      1.008
 15820         HL    463   POPC   H13C   4013       0.25      1.008
 15821       CTL5    463   POPC    C14   4013      -0.35     12.011
 15822         HL    463   POPC   H14A   4013       0.25      1.008
 15823         HL    463   POPC   H14B   4013       0.25      1.008
 15824         HL    463   POPC   H14C   4013       0.25      1.008
 15825       CTL5    463   POPC    C15   4013      -0.35     12.011
 15826         HL    463   POPC   H15A   4013       0.25      1.008
 15827         HL    463   POPC   H15B   4013       0.25      1.008
 15828         HL    463   POPC   H15C   4013       0.25      1.008
 15829       CTL2    463   POPC    C11   4014      -0.08     12.011
 15830       HAL2    463   POPC   H11A   4014       0.09      1.008
 15831       HAL2    463   POPC   H11B   4014       0.09      1.008
 15832         PL    463   POPC      P   4014        1.5     30.974
 15833        O2L    463   POPC    O13   4014      -0.78    15.9994
 15834        O2L    463   POPC    O14   4014      -0.78    15.9994
 15835       OSLP    463   POPC    O12   4014      -0.57    15.9994
 15836       OSLP    463   POPC    O11   4014      -0.57    15.9994
 15837       CTL2    463   POPC     C1   4014      -0.08     12.011
 15838       HAL2    463   POPC     HA   4014       0.09      1.008
 15839       HAL2    463   POPC     HB   4014       0.09      1.008
 15840       CTL1    463   POPC     C2   4015       0.17     12.011
 15841       HAL1    463   POPC     HS   4015       0.09      1.008
 15842        OSL    463   POPC    O21   4015      -0.49    15.9994
 15843         CL    463   POPC    C21   4015        0.9     12.011
 15844        OBL    463   POPC    O22   4015      -0.63    15.9994
 15845       CTL2    463   POPC    C22   4015      -0.22     12.011
 15846       HAL2    463   POPC    H2R   4015       0.09      1.008
 15847       HAL2    463   POPC    H2S   4015       0.09      1.008
 15848       CTL2    463   POPC     C3   4016       0.08     12.011
 15849       HAL2    463   POPC     HX   4016       0.09      1.008
 15850       HAL2    463   POPC     HY   4016       0.09      1.008
 15851        OSL    463   POPC    O31   4016      -0.49    15.9994
 15852         CL    463   POPC    C31   4016        0.9     12.011
 15853        OBL    463   POPC    O32   4016      -0.63    15.9994
 15854       CTL2    463   POPC    C32   4016      -0.22     12.011
 15855       HAL2    463   POPC    H2X   4016       0.09      1.008
 15856       HAL2    463   POPC    H2Y   4016       0.09      1.008
 15857       CTL2    463   POPC    C23   4017      -0.18     12.011
 15858       HAL2    463   POPC    H3R   4017       0.09      1.008
 15859       HAL2    463   POPC    H3S   4017       0.09      1.008
 15860       CTL2    463   POPC    C24   4018      -0.18     12.011
 15861       HAL2    463   POPC    H4R   4018       0.09      1.008
 15862       HAL2    463   POPC    H4S   4018       0.09      1.008
 15863       CTL2    463   POPC    C25   4019      -0.18     12.011
 15864       HAL2    463   POPC    H5R   4019       0.09      1.008
 15865       HAL2    463   POPC    H5S   4019       0.09      1.008
 15866       CTL2    463   POPC    C26   4020      -0.18     12.011
 15867       HAL2    463   POPC    H6R   4020       0.09      1.008
 15868       HAL2    463   POPC    H6S   4020       0.09      1.008
 15869       CTL2    463   POPC    C27   4021      -0.18     12.011
 15870       HAL2    463   POPC    H7R   4021       0.09      1.008
 15871       HAL2    463   POPC    H7S   4021       0.09      1.008
 15872       CTL2    463   POPC    C28   4022      -0.18     12.011
 15873       HAL2    463   POPC    H8R   4022       0.09      1.008
 15874       HAL2    463   POPC    H8S   4022       0.09      1.008
 15875       CEL1    463   POPC    C29   4023      -0.15     12.011
 15876       HEL1    463   POPC    H91   4023       0.15      1.008
 15877       CEL1    463   POPC   C210   4024      -0.15     12.011
 15878       HEL1    463   POPC   H101   4024       0.15      1.008
 15879       CTL2    463   POPC   C211   4025      -0.18     12.011
 15880       HAL2    463   POPC   H11R   4025       0.09      1.008
 15881       HAL2    463   POPC   H11S   4025       0.09      1.008
 15882       CTL2    463   POPC   C212   4026      -0.18     12.011
 15883       HAL2    463   POPC   H12R   4026       0.09      1.008
 15884       HAL2    463   POPC   H12S   4026       0.09      1.008
 15885       CTL2    463   POPC   C213   4027      -0.18     12.011
 15886       HAL2    463   POPC   H13R   4027       0.09      1.008
 15887       HAL2    463   POPC   H13S   4027       0.09      1.008
 15888       CTL2    463   POPC   C214   4028      -0.18     12.011
 15889       HAL2    463   POPC   H14R   4028       0.09      1.008
 15890       HAL2    463   POPC   H14S   4028       0.09      1.008
 15891       CTL2    463   POPC   C215   4029      -0.18     12.011
 15892       HAL2    463   POPC   H15R   4029       0.09      1.008
 15893       HAL2    463   POPC   H15S   4029       0.09      1.008
 15894       CTL2    463   POPC   C216   4030      -0.18     12.011
 15895       HAL2    463   POPC   H16R   4030       0.09      1.008
 15896       HAL2    463   POPC   H16S   4030       0.09      1.008
 15897       CTL2    463   POPC   C217   4031      -0.18     12.011
 15898       HAL2    463   POPC   H17R   4031       0.09      1.008
 15899       HAL2    463   POPC   H17S   4031       0.09      1.008
 15900       CTL3    463   POPC   C218   4032      -0.27     12.011
 15901       HAL3    463   POPC   H18R   4032       0.09      1.008
 15902       HAL3    463   POPC   H18S   4032       0.09      1.008
 15903       HAL3    463   POPC   H18T   4032       0.09      1.008
 15904       CTL2    463   POPC    C33   4033      -0.18     12.011
 15905       HAL2    463   POPC    H3X   4033       0.09      1.008
 15906       HAL2    463   POPC    H3Y   4033       0.09      1.008
 15907       CTL2    463   POPC    C34   4034      -0.18     12.011
 15908       HAL2    463   POPC    H4X   4034       0.09      1.008
 15909       HAL2    463   POPC    H4Y   4034       0.09      1.008
 15910       CTL2    463   POPC    C35   4035      -0.18     12.011
 15911       HAL2    463   POPC    H5X   4035       0.09      1.008
 15912       HAL2    463   POPC    H5Y   4035       0.09      1.008
 15913       CTL2    463   POPC    C36   4036      -0.18     12.011
 15914       HAL2    463   POPC    H6X   4036       0.09      1.008
 15915       HAL2    463   POPC    H6Y   4036       0.09      1.008
 15916       CTL2    463   POPC    C37   4037      -0.18     12.011
 15917       HAL2    463   POPC    H7X   4037       0.09      1.008
 15918       HAL2    463   POPC    H7Y   4037       0.09      1.008
 15919       CTL2    463   POPC    C38   4038      -0.18     12.011
 15920       HAL2    463   POPC    H8X   4038       0.09      1.008
 15921       HAL2    463   POPC    H8Y   4038       0.09      1.008
 15922       CTL2    463   POPC    C39   4039      -0.18     12.011
 15923       HAL2    463   POPC    H9X   4039       0.09      1.008
 15924       HAL2    463   POPC    H9Y   4039       0.09      1.008
 15925       CTL2    463   POPC   C310   4040      -0.18     12.011
 15926       HAL2    463   POPC   H10X   4040       0.09      1.008
 15927       HAL2    463   POPC   H10Y   4040       0.09      1.008
 15928       CTL2    463   POPC   C311   4041      -0.18     12.011
 15929       HAL2    463   POPC   H11X   4041       0.09      1.008
 15930       HAL2    463   POPC   H11Y   4041       0.09      1.008
 15931       CTL2    463   POPC   C312   4042      -0.18     12.011
 15932       HAL2    463   POPC   H12X   4042       0.09      1.008
 15933       HAL2    463   POPC   H12Y   4042       0.09      1.008
 15934       CTL2    463   POPC   C313   4043      -0.18     12.011
 15935       HAL2    463   POPC   H13X   4043       0.09      1.008
 15936       HAL2    463   POPC   H13Y   4043       0.09      1.008
 15937       CTL2    463   POPC   C314   4044      -0.18     12.011
 15938       HAL2    463   POPC   H14X   4044       0.09      1.008
 15939       HAL2    463   POPC   H14Y   4044       0.09      1.008
 15940       CTL2    463   POPC   C315   4045      -0.18     12.011
 15941       HAL2    463   POPC   H15X   4045       0.09      1.008
 15942       HAL2    463   POPC   H15Y   4045       0.09      1.008
 15943       CTL3    463   POPC   C316   4046      -0.27     12.011
 15944       HAL3    463   POPC   H16X   4046       0.09      1.008
 15945       HAL3    463   POPC   H16Y   4046       0.09      1.008
 15946       HAL3    463   POPC   H16Z   4046       0.09      1.008   ; qtot 0
; residue 464 POPC rtp POPC q  0.0
 15947        NTL    464   POPC      N   4047       -0.6     14.007
 15948       CTL2    464   POPC    C12   4047       -0.1     12.011
 15949         HL    464   POPC   H12A   4047       0.25      1.008
 15950         HL    464   POPC   H12B   4047       0.25      1.008
 15951       CTL5    464   POPC    C13   4047      -0.35     12.011
 15952         HL    464   POPC   H13A   4047       0.25      1.008
 15953         HL    464   POPC   H13B   4047       0.25      1.008
 15954         HL    464   POPC   H13C   4047       0.25      1.008
 15955       CTL5    464   POPC    C14   4047      -0.35     12.011
 15956         HL    464   POPC   H14A   4047       0.25      1.008
 15957         HL    464   POPC   H14B   4047       0.25      1.008
 15958         HL    464   POPC   H14C   4047       0.25      1.008
 15959       CTL5    464   POPC    C15   4047      -0.35     12.011
 15960         HL    464   POPC   H15A   4047       0.25      1.008
 15961         HL    464   POPC   H15B   4047       0.25      1.008
 15962         HL    464   POPC   H15C   4047       0.25      1.008
 15963       CTL2    464   POPC    C11   4048      -0.08     12.011
 15964       HAL2    464   POPC   H11A   4048       0.09      1.008
 15965       HAL2    464   POPC   H11B   4048       0.09      1.008
 15966         PL    464   POPC      P   4048        1.5     30.974
 15967        O2L    464   POPC    O13   4048      -0.78    15.9994
 15968        O2L    464   POPC    O14   4048      -0.78    15.9994
 15969       OSLP    464   POPC    O12   4048      -0.57    15.9994
 15970       OSLP    464   POPC    O11   4048      -0.57    15.9994
 15971       CTL2    464   POPC     C1   4048      -0.08     12.011
 15972       HAL2    464   POPC     HA   4048       0.09      1.008
 15973       HAL2    464   POPC     HB   4048       0.09      1.008
 15974       CTL1    464   POPC     C2   4049       0.17     12.011
 15975       HAL1    464   POPC     HS   4049       0.09      1.008
 15976        OSL    464   POPC    O21   4049      -0.49    15.9994
 15977         CL    464   POPC    C21   4049        0.9     12.011
 15978        OBL    464   POPC    O22   4049      -0.63    15.9994
 15979       CTL2    464   POPC    C22   4049      -0.22     12.011
 15980       HAL2    464   POPC    H2R   4049       0.09      1.008
 15981       HAL2    464   POPC    H2S   4049       0.09      1.008
 15982       CTL2    464   POPC     C3   4050       0.08     12.011
 15983       HAL2    464   POPC     HX   4050       0.09      1.008
 15984       HAL2    464   POPC     HY   4050       0.09      1.008
 15985        OSL    464   POPC    O31   4050      -0.49    15.9994
 15986         CL    464   POPC    C31   4050        0.9     12.011
 15987        OBL    464   POPC    O32   4050      -0.63    15.9994
 15988       CTL2    464   POPC    C32   4050      -0.22     12.011
 15989       HAL2    464   POPC    H2X   4050       0.09      1.008
 15990       HAL2    464   POPC    H2Y   4050       0.09      1.008
 15991       CTL2    464   POPC    C23   4051      -0.18     12.011
 15992       HAL2    464   POPC    H3R   4051       0.09      1.008
 15993       HAL2    464   POPC    H3S   4051       0.09      1.008
 15994       CTL2    464   POPC    C24   4052      -0.18     12.011
 15995       HAL2    464   POPC    H4R   4052       0.09      1.008
 15996       HAL2    464   POPC    H4S   4052       0.09      1.008
 15997       CTL2    464   POPC    C25   4053      -0.18     12.011
 15998       HAL2    464   POPC    H5R   4053       0.09      1.008
 15999       HAL2    464   POPC    H5S   4053       0.09      1.008
 16000       CTL2    464   POPC    C26   4054      -0.18     12.011
 16001       HAL2    464   POPC    H6R   4054       0.09      1.008
 16002       HAL2    464   POPC    H6S   4054       0.09      1.008
 16003       CTL2    464   POPC    C27   4055      -0.18     12.011
 16004       HAL2    464   POPC    H7R   4055       0.09      1.008
 16005       HAL2    464   POPC    H7S   4055       0.09      1.008
 16006       CTL2    464   POPC    C28   4056      -0.18     12.011
 16007       HAL2    464   POPC    H8R   4056       0.09      1.008
 16008       HAL2    464   POPC    H8S   4056       0.09      1.008
 16009       CEL1    464   POPC    C29   4057      -0.15     12.011
 16010       HEL1    464   POPC    H91   4057       0.15      1.008
 16011       CEL1    464   POPC   C210   4058      -0.15     12.011
 16012       HEL1    464   POPC   H101   4058       0.15      1.008
 16013       CTL2    464   POPC   C211   4059      -0.18     12.011
 16014       HAL2    464   POPC   H11R   4059       0.09      1.008
 16015       HAL2    464   POPC   H11S   4059       0.09      1.008
 16016       CTL2    464   POPC   C212   4060      -0.18     12.011
 16017       HAL2    464   POPC   H12R   4060       0.09      1.008
 16018       HAL2    464   POPC   H12S   4060       0.09      1.008
 16019       CTL2    464   POPC   C213   4061      -0.18     12.011
 16020       HAL2    464   POPC   H13R   4061       0.09      1.008
 16021       HAL2    464   POPC   H13S   4061       0.09      1.008
 16022       CTL2    464   POPC   C214   4062      -0.18     12.011
 16023       HAL2    464   POPC   H14R   4062       0.09      1.008
 16024       HAL2    464   POPC   H14S   4062       0.09      1.008
 16025       CTL2    464   POPC   C215   4063      -0.18     12.011
 16026       HAL2    464   POPC   H15R   4063       0.09      1.008
 16027       HAL2    464   POPC   H15S   4063       0.09      1.008
 16028       CTL2    464   POPC   C216   4064      -0.18     12.011
 16029       HAL2    464   POPC   H16R   4064       0.09      1.008
 16030       HAL2    464   POPC   H16S   4064       0.09      1.008
 16031       CTL2    464   POPC   C217   4065      -0.18     12.011
 16032       HAL2    464   POPC   H17R   4065       0.09      1.008
 16033       HAL2    464   POPC   H17S   4065       0.09      1.008
 16034       CTL3    464   POPC   C218   4066      -0.27     12.011
 16035       HAL3    464   POPC   H18R   4066       0.09      1.008
 16036       HAL3    464   POPC   H18S   4066       0.09      1.008
 16037       HAL3    464   POPC   H18T   4066       0.09      1.008
 16038       CTL2    464   POPC    C33   4067      -0.18     12.011
 16039       HAL2    464   POPC    H3X   4067       0.09      1.008
 16040       HAL2    464   POPC    H3Y   4067       0.09      1.008
 16041       CTL2    464   POPC    C34   4068      -0.18     12.011
 16042       HAL2    464   POPC    H4X   4068       0.09      1.008
 16043       HAL2    464   POPC    H4Y   4068       0.09      1.008
 16044       CTL2    464   POPC    C35   4069      -0.18     12.011
 16045       HAL2    464   POPC    H5X   4069       0.09      1.008
 16046       HAL2    464   POPC    H5Y   4069       0.09      1.008
 16047       CTL2    464   POPC    C36   4070      -0.18     12.011
 16048       HAL2    464   POPC    H6X   4070       0.09      1.008
 16049       HAL2    464   POPC    H6Y   4070       0.09      1.008
 16050       CTL2    464   POPC    C37   4071      -0.18     12.011
 16051       HAL2    464   POPC    H7X   4071       0.09      1.008
 16052       HAL2    464   POPC    H7Y   4071       0.09      1.008
 16053       CTL2    464   POPC    C38   4072      -0.18     12.011
 16054       HAL2    464   POPC    H8X   4072       0.09      1.008
 16055       HAL2    464   POPC    H8Y   4072       0.09      1.008
 16056       CTL2    464   POPC    C39   4073      -0.18     12.011
 16057       HAL2    464   POPC    H9X   4073       0.09      1.008
 16058       HAL2    464   POPC    H9Y   4073       0.09      1.008
 16059       CTL2    464   POPC   C310   4074      -0.18     12.011
 16060       HAL2    464   POPC   H10X   4074       0.09      1.008
 16061       HAL2    464   POPC   H10Y   4074       0.09      1.008
 16062       CTL2    464   POPC   C311   4075      -0.18     12.011
 16063       HAL2    464   POPC   H11X   4075       0.09      1.008
 16064       HAL2    464   POPC   H11Y   4075       0.09      1.008
 16065       CTL2    464   POPC   C312   4076      -0.18     12.011
 16066       HAL2    464   POPC   H12X   4076       0.09      1.008
 16067       HAL2    464   POPC   H12Y   4076       0.09      1.008
 16068       CTL2    464   POPC   C313   4077      -0.18     12.011
 16069       HAL2    464   POPC   H13X   4077       0.09      1.008
 16070       HAL2    464   POPC   H13Y   4077       0.09      1.008
 16071       CTL2    464   POPC   C314   4078      -0.18     12.011
 16072       HAL2    464   POPC   H14X   4078       0.09      1.008
 16073       HAL2    464   POPC   H14Y   4078       0.09      1.008
 16074       CTL2    464   POPC   C315   4079      -0.18     12.011
 16075       HAL2    464   POPC   H15X   4079       0.09      1.008
 16076       HAL2    464   POPC   H15Y   4079       0.09      1.008
 16077       CTL3    464   POPC   C316   4080      -0.27     12.011
 16078       HAL3    464   POPC   H16X   4080       0.09      1.008
 16079       HAL3    464   POPC   H16Y   4080       0.09      1.008
 16080       HAL3    464   POPC   H16Z   4080       0.09      1.008   ; qtot 0
; residue 465 POPC rtp POPC q  0.0
 16081        NTL    465   POPC      N   4081       -0.6     14.007
 16082       CTL2    465   POPC    C12   4081       -0.1     12.011
 16083         HL    465   POPC   H12A   4081       0.25      1.008
 16084         HL    465   POPC   H12B   4081       0.25      1.008
 16085       CTL5    465   POPC    C13   4081      -0.35     12.011
 16086         HL    465   POPC   H13A   4081       0.25      1.008
 16087         HL    465   POPC   H13B   4081       0.25      1.008
 16088         HL    465   POPC   H13C   4081       0.25      1.008
 16089       CTL5    465   POPC    C14   4081      -0.35     12.011
 16090         HL    465   POPC   H14A   4081       0.25      1.008
 16091         HL    465   POPC   H14B   4081       0.25      1.008
 16092         HL    465   POPC   H14C   4081       0.25      1.008
 16093       CTL5    465   POPC    C15   4081      -0.35     12.011
 16094         HL    465   POPC   H15A   4081       0.25      1.008
 16095         HL    465   POPC   H15B   4081       0.25      1.008
 16096         HL    465   POPC   H15C   4081       0.25      1.008
 16097       CTL2    465   POPC    C11   4082      -0.08     12.011
 16098       HAL2    465   POPC   H11A   4082       0.09      1.008
 16099       HAL2    465   POPC   H11B   4082       0.09      1.008
 16100         PL    465   POPC      P   4082        1.5     30.974
 16101        O2L    465   POPC    O13   4082      -0.78    15.9994
 16102        O2L    465   POPC    O14   4082      -0.78    15.9994
 16103       OSLP    465   POPC    O12   4082      -0.57    15.9994
 16104       OSLP    465   POPC    O11   4082      -0.57    15.9994
 16105       CTL2    465   POPC     C1   4082      -0.08     12.011
 16106       HAL2    465   POPC     HA   4082       0.09      1.008
 16107       HAL2    465   POPC     HB   4082       0.09      1.008
 16108       CTL1    465   POPC     C2   4083       0.17     12.011
 16109       HAL1    465   POPC     HS   4083       0.09      1.008
 16110        OSL    465   POPC    O21   4083      -0.49    15.9994
 16111         CL    465   POPC    C21   4083        0.9     12.011
 16112        OBL    465   POPC    O22   4083      -0.63    15.9994
 16113       CTL2    465   POPC    C22   4083      -0.22     12.011
 16114       HAL2    465   POPC    H2R   4083       0.09      1.008
 16115       HAL2    465   POPC    H2S   4083       0.09      1.008
 16116       CTL2    465   POPC     C3   4084       0.08     12.011
 16117       HAL2    465   POPC     HX   4084       0.09      1.008
 16118       HAL2    465   POPC     HY   4084       0.09      1.008
 16119        OSL    465   POPC    O31   4084      -0.49    15.9994
 16120         CL    465   POPC    C31   4084        0.9     12.011
 16121        OBL    465   POPC    O32   4084      -0.63    15.9994
 16122       CTL2    465   POPC    C32   4084      -0.22     12.011
 16123       HAL2    465   POPC    H2X   4084       0.09      1.008
 16124       HAL2    465   POPC    H2Y   4084       0.09      1.008
 16125       CTL2    465   POPC    C23   4085      -0.18     12.011
 16126       HAL2    465   POPC    H3R   4085       0.09      1.008
 16127       HAL2    465   POPC    H3S   4085       0.09      1.008
 16128       CTL2    465   POPC    C24   4086      -0.18     12.011
 16129       HAL2    465   POPC    H4R   4086       0.09      1.008
 16130       HAL2    465   POPC    H4S   4086       0.09      1.008
 16131       CTL2    465   POPC    C25   4087      -0.18     12.011
 16132       HAL2    465   POPC    H5R   4087       0.09      1.008
 16133       HAL2    465   POPC    H5S   4087       0.09      1.008
 16134       CTL2    465   POPC    C26   4088      -0.18     12.011
 16135       HAL2    465   POPC    H6R   4088       0.09      1.008
 16136       HAL2    465   POPC    H6S   4088       0.09      1.008
 16137       CTL2    465   POPC    C27   4089      -0.18     12.011
 16138       HAL2    465   POPC    H7R   4089       0.09      1.008
 16139       HAL2    465   POPC    H7S   4089       0.09      1.008
 16140       CTL2    465   POPC    C28   4090      -0.18     12.011
 16141       HAL2    465   POPC    H8R   4090       0.09      1.008
 16142       HAL2    465   POPC    H8S   4090       0.09      1.008
 16143       CEL1    465   POPC    C29   4091      -0.15     12.011
 16144       HEL1    465   POPC    H91   4091       0.15      1.008
 16145       CEL1    465   POPC   C210   4092      -0.15     12.011
 16146       HEL1    465   POPC   H101   4092       0.15      1.008
 16147       CTL2    465   POPC   C211   4093      -0.18     12.011
 16148       HAL2    465   POPC   H11R   4093       0.09      1.008
 16149       HAL2    465   POPC   H11S   4093       0.09      1.008
 16150       CTL2    465   POPC   C212   4094      -0.18     12.011
 16151       HAL2    465   POPC   H12R   4094       0.09      1.008
 16152       HAL2    465   POPC   H12S   4094       0.09      1.008
 16153       CTL2    465   POPC   C213   4095      -0.18     12.011
 16154       HAL2    465   POPC   H13R   4095       0.09      1.008
 16155       HAL2    465   POPC   H13S   4095       0.09      1.008
 16156       CTL2    465   POPC   C214   4096      -0.18     12.011
 16157       HAL2    465   POPC   H14R   4096       0.09      1.008
 16158       HAL2    465   POPC   H14S   4096       0.09      1.008
 16159       CTL2    465   POPC   C215   4097      -0.18     12.011
 16160       HAL2    465   POPC   H15R   4097       0.09      1.008
 16161       HAL2    465   POPC   H15S   4097       0.09      1.008
 16162       CTL2    465   POPC   C216   4098      -0.18     12.011
 16163       HAL2    465   POPC   H16R   4098       0.09      1.008
 16164       HAL2    465   POPC   H16S   4098       0.09      1.008
 16165       CTL2    465   POPC   C217   4099      -0.18     12.011
 16166       HAL2    465   POPC   H17R   4099       0.09      1.008
 16167       HAL2    465   POPC   H17S   4099       0.09      1.008
 16168       CTL3    465   POPC   C218   4100      -0.27     12.011
 16169       HAL3    465   POPC   H18R   4100       0.09      1.008
 16170       HAL3    465   POPC   H18S   4100       0.09      1.008
 16171       HAL3    465   POPC   H18T   4100       0.09      1.008
 16172       CTL2    465   POPC    C33   4101      -0.18     12.011
 16173       HAL2    465   POPC    H3X   4101       0.09      1.008
 16174       HAL2    465   POPC    H3Y   4101       0.09      1.008
 16175       CTL2    465   POPC    C34   4102      -0.18     12.011
 16176       HAL2    465   POPC    H4X   4102       0.09      1.008
 16177       HAL2    465   POPC    H4Y   4102       0.09      1.008
 16178       CTL2    465   POPC    C35   4103      -0.18     12.011
 16179       HAL2    465   POPC    H5X   4103       0.09      1.008
 16180       HAL2    465   POPC    H5Y   4103       0.09      1.008
 16181       CTL2    465   POPC    C36   4104      -0.18     12.011
 16182       HAL2    465   POPC    H6X   4104       0.09      1.008
 16183       HAL2    465   POPC    H6Y   4104       0.09      1.008
 16184       CTL2    465   POPC    C37   4105      -0.18     12.011
 16185       HAL2    465   POPC    H7X   4105       0.09      1.008
 16186       HAL2    465   POPC    H7Y   4105       0.09      1.008
 16187       CTL2    465   POPC    C38   4106      -0.18     12.011
 16188       HAL2    465   POPC    H8X   4106       0.09      1.008
 16189       HAL2    465   POPC    H8Y   4106       0.09      1.008
 16190       CTL2    465   POPC    C39   4107      -0.18     12.011
 16191       HAL2    465   POPC    H9X   4107       0.09      1.008
 16192       HAL2    465   POPC    H9Y   4107       0.09      1.008
 16193       CTL2    465   POPC   C310   4108      -0.18     12.011
 16194       HAL2    465   POPC   H10X   4108       0.09      1.008
 16195       HAL2    465   POPC   H10Y   4108       0.09      1.008
 16196       CTL2    465   POPC   C311   4109      -0.18     12.011
 16197       HAL2    465   POPC   H11X   4109       0.09      1.008
 16198       HAL2    465   POPC   H11Y   4109       0.09      1.008
 16199       CTL2    465   POPC   C312   4110      -0.18     12.011
 16200       HAL2    465   POPC   H12X   4110       0.09      1.008
 16201       HAL2    465   POPC   H12Y   4110       0.09      1.008
 16202       CTL2    465   POPC   C313   4111      -0.18     12.011
 16203       HAL2    465   POPC   H13X   4111       0.09      1.008
 16204       HAL2    465   POPC   H13Y   4111       0.09      1.008
 16205       CTL2    465   POPC   C314   4112      -0.18     12.011
 16206       HAL2    465   POPC   H14X   4112       0.09      1.008
 16207       HAL2    465   POPC   H14Y   4112       0.09      1.008
 16208       CTL2    465   POPC   C315   4113      -0.18     12.011
 16209       HAL2    465   POPC   H15X   4113       0.09      1.008
 16210       HAL2    465   POPC   H15Y   4113       0.09      1.008
 16211       CTL3    465   POPC   C316   4114      -0.27     12.011
 16212       HAL3    465   POPC   H16X   4114       0.09      1.008
 16213       HAL3    465   POPC   H16Y   4114       0.09      1.008
 16214       HAL3    465   POPC   H16Z   4114       0.09      1.008   ; qtot 0
; residue 466 POPC rtp POPC q  0.0
 16215        NTL    466   POPC      N   4115       -0.6     14.007
 16216       CTL2    466   POPC    C12   4115       -0.1     12.011
 16217         HL    466   POPC   H12A   4115       0.25      1.008
 16218         HL    466   POPC   H12B   4115       0.25      1.008
 16219       CTL5    466   POPC    C13   4115      -0.35     12.011
 16220         HL    466   POPC   H13A   4115       0.25      1.008
 16221         HL    466   POPC   H13B   4115       0.25      1.008
 16222         HL    466   POPC   H13C   4115       0.25      1.008
 16223       CTL5    466   POPC    C14   4115      -0.35     12.011
 16224         HL    466   POPC   H14A   4115       0.25      1.008
 16225         HL    466   POPC   H14B   4115       0.25      1.008
 16226         HL    466   POPC   H14C   4115       0.25      1.008
 16227       CTL5    466   POPC    C15   4115      -0.35     12.011
 16228         HL    466   POPC   H15A   4115       0.25      1.008
 16229         HL    466   POPC   H15B   4115       0.25      1.008
 16230         HL    466   POPC   H15C   4115       0.25      1.008
 16231       CTL2    466   POPC    C11   4116      -0.08     12.011
 16232       HAL2    466   POPC   H11A   4116       0.09      1.008
 16233       HAL2    466   POPC   H11B   4116       0.09      1.008
 16234         PL    466   POPC      P   4116        1.5     30.974
 16235        O2L    466   POPC    O13   4116      -0.78    15.9994
 16236        O2L    466   POPC    O14   4116      -0.78    15.9994
 16237       OSLP    466   POPC    O12   4116      -0.57    15.9994
 16238       OSLP    466   POPC    O11   4116      -0.57    15.9994
 16239       CTL2    466   POPC     C1   4116      -0.08     12.011
 16240       HAL2    466   POPC     HA   4116       0.09      1.008
 16241       HAL2    466   POPC     HB   4116       0.09      1.008
 16242       CTL1    466   POPC     C2   4117       0.17     12.011
 16243       HAL1    466   POPC     HS   4117       0.09      1.008
 16244        OSL    466   POPC    O21   4117      -0.49    15.9994
 16245         CL    466   POPC    C21   4117        0.9     12.011
 16246        OBL    466   POPC    O22   4117      -0.63    15.9994
 16247       CTL2    466   POPC    C22   4117      -0.22     12.011
 16248       HAL2    466   POPC    H2R   4117       0.09      1.008
 16249       HAL2    466   POPC    H2S   4117       0.09      1.008
 16250       CTL2    466   POPC     C3   4118       0.08     12.011
 16251       HAL2    466   POPC     HX   4118       0.09      1.008
 16252       HAL2    466   POPC     HY   4118       0.09      1.008
 16253        OSL    466   POPC    O31   4118      -0.49    15.9994
 16254         CL    466   POPC    C31   4118        0.9     12.011
 16255        OBL    466   POPC    O32   4118      -0.63    15.9994
 16256       CTL2    466   POPC    C32   4118      -0.22     12.011
 16257       HAL2    466   POPC    H2X   4118       0.09      1.008
 16258       HAL2    466   POPC    H2Y   4118       0.09      1.008
 16259       CTL2    466   POPC    C23   4119      -0.18     12.011
 16260       HAL2    466   POPC    H3R   4119       0.09      1.008
 16261       HAL2    466   POPC    H3S   4119       0.09      1.008
 16262       CTL2    466   POPC    C24   4120      -0.18     12.011
 16263       HAL2    466   POPC    H4R   4120       0.09      1.008
 16264       HAL2    466   POPC    H4S   4120       0.09      1.008
 16265       CTL2    466   POPC    C25   4121      -0.18     12.011
 16266       HAL2    466   POPC    H5R   4121       0.09      1.008
 16267       HAL2    466   POPC    H5S   4121       0.09      1.008
 16268       CTL2    466   POPC    C26   4122      -0.18     12.011
 16269       HAL2    466   POPC    H6R   4122       0.09      1.008
 16270       HAL2    466   POPC    H6S   4122       0.09      1.008
 16271       CTL2    466   POPC    C27   4123      -0.18     12.011
 16272       HAL2    466   POPC    H7R   4123       0.09      1.008
 16273       HAL2    466   POPC    H7S   4123       0.09      1.008
 16274       CTL2    466   POPC    C28   4124      -0.18     12.011
 16275       HAL2    466   POPC    H8R   4124       0.09      1.008
 16276       HAL2    466   POPC    H8S   4124       0.09      1.008
 16277       CEL1    466   POPC    C29   4125      -0.15     12.011
 16278       HEL1    466   POPC    H91   4125       0.15      1.008
 16279       CEL1    466   POPC   C210   4126      -0.15     12.011
 16280       HEL1    466   POPC   H101   4126       0.15      1.008
 16281       CTL2    466   POPC   C211   4127      -0.18     12.011
 16282       HAL2    466   POPC   H11R   4127       0.09      1.008
 16283       HAL2    466   POPC   H11S   4127       0.09      1.008
 16284       CTL2    466   POPC   C212   4128      -0.18     12.011
 16285       HAL2    466   POPC   H12R   4128       0.09      1.008
 16286       HAL2    466   POPC   H12S   4128       0.09      1.008
 16287       CTL2    466   POPC   C213   4129      -0.18     12.011
 16288       HAL2    466   POPC   H13R   4129       0.09      1.008
 16289       HAL2    466   POPC   H13S   4129       0.09      1.008
 16290       CTL2    466   POPC   C214   4130      -0.18     12.011
 16291       HAL2    466   POPC   H14R   4130       0.09      1.008
 16292       HAL2    466   POPC   H14S   4130       0.09      1.008
 16293       CTL2    466   POPC   C215   4131      -0.18     12.011
 16294       HAL2    466   POPC   H15R   4131       0.09      1.008
 16295       HAL2    466   POPC   H15S   4131       0.09      1.008
 16296       CTL2    466   POPC   C216   4132      -0.18     12.011
 16297       HAL2    466   POPC   H16R   4132       0.09      1.008
 16298       HAL2    466   POPC   H16S   4132       0.09      1.008
 16299       CTL2    466   POPC   C217   4133      -0.18     12.011
 16300       HAL2    466   POPC   H17R   4133       0.09      1.008
 16301       HAL2    466   POPC   H17S   4133       0.09      1.008
 16302       CTL3    466   POPC   C218   4134      -0.27     12.011
 16303       HAL3    466   POPC   H18R   4134       0.09      1.008
 16304       HAL3    466   POPC   H18S   4134       0.09      1.008
 16305       HAL3    466   POPC   H18T   4134       0.09      1.008
 16306       CTL2    466   POPC    C33   4135      -0.18     12.011
 16307       HAL2    466   POPC    H3X   4135       0.09      1.008
 16308       HAL2    466   POPC    H3Y   4135       0.09      1.008
 16309       CTL2    466   POPC    C34   4136      -0.18     12.011
 16310       HAL2    466   POPC    H4X   4136       0.09      1.008
 16311       HAL2    466   POPC    H4Y   4136       0.09      1.008
 16312       CTL2    466   POPC    C35   4137      -0.18     12.011
 16313       HAL2    466   POPC    H5X   4137       0.09      1.008
 16314       HAL2    466   POPC    H5Y   4137       0.09      1.008
 16315       CTL2    466   POPC    C36   4138      -0.18     12.011
 16316       HAL2    466   POPC    H6X   4138       0.09      1.008
 16317       HAL2    466   POPC    H6Y   4138       0.09      1.008
 16318       CTL2    466   POPC    C37   4139      -0.18     12.011
 16319       HAL2    466   POPC    H7X   4139       0.09      1.008
 16320       HAL2    466   POPC    H7Y   4139       0.09      1.008
 16321       CTL2    466   POPC    C38   4140      -0.18     12.011
 16322       HAL2    466   POPC    H8X   4140       0.09      1.008
 16323       HAL2    466   POPC    H8Y   4140       0.09      1.008
 16324       CTL2    466   POPC    C39   4141      -0.18     12.011
 16325       HAL2    466   POPC    H9X   4141       0.09      1.008
 16326       HAL2    466   POPC    H9Y   4141       0.09      1.008
 16327       CTL2    466   POPC   C310   4142      -0.18     12.011
 16328       HAL2    466   POPC   H10X   4142       0.09      1.008
 16329       HAL2    466   POPC   H10Y   4142       0.09      1.008
 16330       CTL2    466   POPC   C311   4143      -0.18     12.011
 16331       HAL2    466   POPC   H11X   4143       0.09      1.008
 16332       HAL2    466   POPC   H11Y   4143       0.09      1.008
 16333       CTL2    466   POPC   C312   4144      -0.18     12.011
 16334       HAL2    466   POPC   H12X   4144       0.09      1.008
 16335       HAL2    466   POPC   H12Y   4144       0.09      1.008
 16336       CTL2    466   POPC   C313   4145      -0.18     12.011
 16337       HAL2    466   POPC   H13X   4145       0.09      1.008
 16338       HAL2    466   POPC   H13Y   4145       0.09      1.008
 16339       CTL2    466   POPC   C314   4146      -0.18     12.011
 16340       HAL2    466   POPC   H14X   4146       0.09      1.008
 16341       HAL2    466   POPC   H14Y   4146       0.09      1.008
 16342       CTL2    466   POPC   C315   4147      -0.18     12.011
 16343       HAL2    466   POPC   H15X   4147       0.09      1.008
 16344       HAL2    466   POPC   H15Y   4147       0.09      1.008
 16345       CTL3    466   POPC   C316   4148      -0.27     12.011
 16346       HAL3    466   POPC   H16X   4148       0.09      1.008
 16347       HAL3    466   POPC   H16Y   4148       0.09      1.008
 16348       HAL3    466   POPC   H16Z   4148       0.09      1.008   ; qtot 0
; residue 467 POPC rtp POPC q  0.0
 16349        NTL    467   POPC      N   4149       -0.6     14.007
 16350       CTL2    467   POPC    C12   4149       -0.1     12.011
 16351         HL    467   POPC   H12A   4149       0.25      1.008
 16352         HL    467   POPC   H12B   4149       0.25      1.008
 16353       CTL5    467   POPC    C13   4149      -0.35     12.011
 16354         HL    467   POPC   H13A   4149       0.25      1.008
 16355         HL    467   POPC   H13B   4149       0.25      1.008
 16356         HL    467   POPC   H13C   4149       0.25      1.008
 16357       CTL5    467   POPC    C14   4149      -0.35     12.011
 16358         HL    467   POPC   H14A   4149       0.25      1.008
 16359         HL    467   POPC   H14B   4149       0.25      1.008
 16360         HL    467   POPC   H14C   4149       0.25      1.008
 16361       CTL5    467   POPC    C15   4149      -0.35     12.011
 16362         HL    467   POPC   H15A   4149       0.25      1.008
 16363         HL    467   POPC   H15B   4149       0.25      1.008
 16364         HL    467   POPC   H15C   4149       0.25      1.008
 16365       CTL2    467   POPC    C11   4150      -0.08     12.011
 16366       HAL2    467   POPC   H11A   4150       0.09      1.008
 16367       HAL2    467   POPC   H11B   4150       0.09      1.008
 16368         PL    467   POPC      P   4150        1.5     30.974
 16369        O2L    467   POPC    O13   4150      -0.78    15.9994
 16370        O2L    467   POPC    O14   4150      -0.78    15.9994
 16371       OSLP    467   POPC    O12   4150      -0.57    15.9994
 16372       OSLP    467   POPC    O11   4150      -0.57    15.9994
 16373       CTL2    467   POPC     C1   4150      -0.08     12.011
 16374       HAL2    467   POPC     HA   4150       0.09      1.008
 16375       HAL2    467   POPC     HB   4150       0.09      1.008
 16376       CTL1    467   POPC     C2   4151       0.17     12.011
 16377       HAL1    467   POPC     HS   4151       0.09      1.008
 16378        OSL    467   POPC    O21   4151      -0.49    15.9994
 16379         CL    467   POPC    C21   4151        0.9     12.011
 16380        OBL    467   POPC    O22   4151      -0.63    15.9994
 16381       CTL2    467   POPC    C22   4151      -0.22     12.011
 16382       HAL2    467   POPC    H2R   4151       0.09      1.008
 16383       HAL2    467   POPC    H2S   4151       0.09      1.008
 16384       CTL2    467   POPC     C3   4152       0.08     12.011
 16385       HAL2    467   POPC     HX   4152       0.09      1.008
 16386       HAL2    467   POPC     HY   4152       0.09      1.008
 16387        OSL    467   POPC    O31   4152      -0.49    15.9994
 16388         CL    467   POPC    C31   4152        0.9     12.011
 16389        OBL    467   POPC    O32   4152      -0.63    15.9994
 16390       CTL2    467   POPC    C32   4152      -0.22     12.011
 16391       HAL2    467   POPC    H2X   4152       0.09      1.008
 16392       HAL2    467   POPC    H2Y   4152       0.09      1.008
 16393       CTL2    467   POPC    C23   4153      -0.18     12.011
 16394       HAL2    467   POPC    H3R   4153       0.09      1.008
 16395       HAL2    467   POPC    H3S   4153       0.09      1.008
 16396       CTL2    467   POPC    C24   4154      -0.18     12.011
 16397       HAL2    467   POPC    H4R   4154       0.09      1.008
 16398       HAL2    467   POPC    H4S   4154       0.09      1.008
 16399       CTL2    467   POPC    C25   4155      -0.18     12.011
 16400       HAL2    467   POPC    H5R   4155       0.09      1.008
 16401       HAL2    467   POPC    H5S   4155       0.09      1.008
 16402       CTL2    467   POPC    C26   4156      -0.18     12.011
 16403       HAL2    467   POPC    H6R   4156       0.09      1.008
 16404       HAL2    467   POPC    H6S   4156       0.09      1.008
 16405       CTL2    467   POPC    C27   4157      -0.18     12.011
 16406       HAL2    467   POPC    H7R   4157       0.09      1.008
 16407       HAL2    467   POPC    H7S   4157       0.09      1.008
 16408       CTL2    467   POPC    C28   4158      -0.18     12.011
 16409       HAL2    467   POPC    H8R   4158       0.09      1.008
 16410       HAL2    467   POPC    H8S   4158       0.09      1.008
 16411       CEL1    467   POPC    C29   4159      -0.15     12.011
 16412       HEL1    467   POPC    H91   4159       0.15      1.008
 16413       CEL1    467   POPC   C210   4160      -0.15     12.011
 16414       HEL1    467   POPC   H101   4160       0.15      1.008
 16415       CTL2    467   POPC   C211   4161      -0.18     12.011
 16416       HAL2    467   POPC   H11R   4161       0.09      1.008
 16417       HAL2    467   POPC   H11S   4161       0.09      1.008
 16418       CTL2    467   POPC   C212   4162      -0.18     12.011
 16419       HAL2    467   POPC   H12R   4162       0.09      1.008
 16420       HAL2    467   POPC   H12S   4162       0.09      1.008
 16421       CTL2    467   POPC   C213   4163      -0.18     12.011
 16422       HAL2    467   POPC   H13R   4163       0.09      1.008
 16423       HAL2    467   POPC   H13S   4163       0.09      1.008
 16424       CTL2    467   POPC   C214   4164      -0.18     12.011
 16425       HAL2    467   POPC   H14R   4164       0.09      1.008
 16426       HAL2    467   POPC   H14S   4164       0.09      1.008
 16427       CTL2    467   POPC   C215   4165      -0.18     12.011
 16428       HAL2    467   POPC   H15R   4165       0.09      1.008
 16429       HAL2    467   POPC   H15S   4165       0.09      1.008
 16430       CTL2    467   POPC   C216   4166      -0.18     12.011
 16431       HAL2    467   POPC   H16R   4166       0.09      1.008
 16432       HAL2    467   POPC   H16S   4166       0.09      1.008
 16433       CTL2    467   POPC   C217   4167      -0.18     12.011
 16434       HAL2    467   POPC   H17R   4167       0.09      1.008
 16435       HAL2    467   POPC   H17S   4167       0.09      1.008
 16436       CTL3    467   POPC   C218   4168      -0.27     12.011
 16437       HAL3    467   POPC   H18R   4168       0.09      1.008
 16438       HAL3    467   POPC   H18S   4168       0.09      1.008
 16439       HAL3    467   POPC   H18T   4168       0.09      1.008
 16440       CTL2    467   POPC    C33   4169      -0.18     12.011
 16441       HAL2    467   POPC    H3X   4169       0.09      1.008
 16442       HAL2    467   POPC    H3Y   4169       0.09      1.008
 16443       CTL2    467   POPC    C34   4170      -0.18     12.011
 16444       HAL2    467   POPC    H4X   4170       0.09      1.008
 16445       HAL2    467   POPC    H4Y   4170       0.09      1.008
 16446       CTL2    467   POPC    C35   4171      -0.18     12.011
 16447       HAL2    467   POPC    H5X   4171       0.09      1.008
 16448       HAL2    467   POPC    H5Y   4171       0.09      1.008
 16449       CTL2    467   POPC    C36   4172      -0.18     12.011
 16450       HAL2    467   POPC    H6X   4172       0.09      1.008
 16451       HAL2    467   POPC    H6Y   4172       0.09      1.008
 16452       CTL2    467   POPC    C37   4173      -0.18     12.011
 16453       HAL2    467   POPC    H7X   4173       0.09      1.008
 16454       HAL2    467   POPC    H7Y   4173       0.09      1.008
 16455       CTL2    467   POPC    C38   4174      -0.18     12.011
 16456       HAL2    467   POPC    H8X   4174       0.09      1.008
 16457       HAL2    467   POPC    H8Y   4174       0.09      1.008
 16458       CTL2    467   POPC    C39   4175      -0.18     12.011
 16459       HAL2    467   POPC    H9X   4175       0.09      1.008
 16460       HAL2    467   POPC    H9Y   4175       0.09      1.008
 16461       CTL2    467   POPC   C310   4176      -0.18     12.011
 16462       HAL2    467   POPC   H10X   4176       0.09      1.008
 16463       HAL2    467   POPC   H10Y   4176       0.09      1.008
 16464       CTL2    467   POPC   C311   4177      -0.18     12.011
 16465       HAL2    467   POPC   H11X   4177       0.09      1.008
 16466       HAL2    467   POPC   H11Y   4177       0.09      1.008
 16467       CTL2    467   POPC   C312   4178      -0.18     12.011
 16468       HAL2    467   POPC   H12X   4178       0.09      1.008
 16469       HAL2    467   POPC   H12Y   4178       0.09      1.008
 16470       CTL2    467   POPC   C313   4179      -0.18     12.011
 16471       HAL2    467   POPC   H13X   4179       0.09      1.008
 16472       HAL2    467   POPC   H13Y   4179       0.09      1.008
 16473       CTL2    467   POPC   C314   4180      -0.18     12.011
 16474       HAL2    467   POPC   H14X   4180       0.09      1.008
 16475       HAL2    467   POPC   H14Y   4180       0.09      1.008
 16476       CTL2    467   POPC   C315   4181      -0.18     12.011
 16477       HAL2    467   POPC   H15X   4181       0.09      1.008
 16478       HAL2    467   POPC   H15Y   4181       0.09      1.008
 16479       CTL3    467   POPC   C316   4182      -0.27     12.011
 16480       HAL3    467   POPC   H16X   4182       0.09      1.008
 16481       HAL3    467   POPC   H16Y   4182       0.09      1.008
 16482       HAL3    467   POPC   H16Z   4182       0.09      1.008   ; qtot 0
; residue 468 POPC rtp POPC q  0.0
 16483        NTL    468   POPC      N   4183       -0.6     14.007
 16484       CTL2    468   POPC    C12   4183       -0.1     12.011
 16485         HL    468   POPC   H12A   4183       0.25      1.008
 16486         HL    468   POPC   H12B   4183       0.25      1.008
 16487       CTL5    468   POPC    C13   4183      -0.35     12.011
 16488         HL    468   POPC   H13A   4183       0.25      1.008
 16489         HL    468   POPC   H13B   4183       0.25      1.008
 16490         HL    468   POPC   H13C   4183       0.25      1.008
 16491       CTL5    468   POPC    C14   4183      -0.35     12.011
 16492         HL    468   POPC   H14A   4183       0.25      1.008
 16493         HL    468   POPC   H14B   4183       0.25      1.008
 16494         HL    468   POPC   H14C   4183       0.25      1.008
 16495       CTL5    468   POPC    C15   4183      -0.35     12.011
 16496         HL    468   POPC   H15A   4183       0.25      1.008
 16497         HL    468   POPC   H15B   4183       0.25      1.008
 16498         HL    468   POPC   H15C   4183       0.25      1.008
 16499       CTL2    468   POPC    C11   4184      -0.08     12.011
 16500       HAL2    468   POPC   H11A   4184       0.09      1.008
 16501       HAL2    468   POPC   H11B   4184       0.09      1.008
 16502         PL    468   POPC      P   4184        1.5     30.974
 16503        O2L    468   POPC    O13   4184      -0.78    15.9994
 16504        O2L    468   POPC    O14   4184      -0.78    15.9994
 16505       OSLP    468   POPC    O12   4184      -0.57    15.9994
 16506       OSLP    468   POPC    O11   4184      -0.57    15.9994
 16507       CTL2    468   POPC     C1   4184      -0.08     12.011
 16508       HAL2    468   POPC     HA   4184       0.09      1.008
 16509       HAL2    468   POPC     HB   4184       0.09      1.008
 16510       CTL1    468   POPC     C2   4185       0.17     12.011
 16511       HAL1    468   POPC     HS   4185       0.09      1.008
 16512        OSL    468   POPC    O21   4185      -0.49    15.9994
 16513         CL    468   POPC    C21   4185        0.9     12.011
 16514        OBL    468   POPC    O22   4185      -0.63    15.9994
 16515       CTL2    468   POPC    C22   4185      -0.22     12.011
 16516       HAL2    468   POPC    H2R   4185       0.09      1.008
 16517       HAL2    468   POPC    H2S   4185       0.09      1.008
 16518       CTL2    468   POPC     C3   4186       0.08     12.011
 16519       HAL2    468   POPC     HX   4186       0.09      1.008
 16520       HAL2    468   POPC     HY   4186       0.09      1.008
 16521        OSL    468   POPC    O31   4186      -0.49    15.9994
 16522         CL    468   POPC    C31   4186        0.9     12.011
 16523        OBL    468   POPC    O32   4186      -0.63    15.9994
 16524       CTL2    468   POPC    C32   4186      -0.22     12.011
 16525       HAL2    468   POPC    H2X   4186       0.09      1.008
 16526       HAL2    468   POPC    H2Y   4186       0.09      1.008
 16527       CTL2    468   POPC    C23   4187      -0.18     12.011
 16528       HAL2    468   POPC    H3R   4187       0.09      1.008
 16529       HAL2    468   POPC    H3S   4187       0.09      1.008
 16530       CTL2    468   POPC    C24   4188      -0.18     12.011
 16531       HAL2    468   POPC    H4R   4188       0.09      1.008
 16532       HAL2    468   POPC    H4S   4188       0.09      1.008
 16533       CTL2    468   POPC    C25   4189      -0.18     12.011
 16534       HAL2    468   POPC    H5R   4189       0.09      1.008
 16535       HAL2    468   POPC    H5S   4189       0.09      1.008
 16536       CTL2    468   POPC    C26   4190      -0.18     12.011
 16537       HAL2    468   POPC    H6R   4190       0.09      1.008
 16538       HAL2    468   POPC    H6S   4190       0.09      1.008
 16539       CTL2    468   POPC    C27   4191      -0.18     12.011
 16540       HAL2    468   POPC    H7R   4191       0.09      1.008
 16541       HAL2    468   POPC    H7S   4191       0.09      1.008
 16542       CTL2    468   POPC    C28   4192      -0.18     12.011
 16543       HAL2    468   POPC    H8R   4192       0.09      1.008
 16544       HAL2    468   POPC    H8S   4192       0.09      1.008
 16545       CEL1    468   POPC    C29   4193      -0.15     12.011
 16546       HEL1    468   POPC    H91   4193       0.15      1.008
 16547       CEL1    468   POPC   C210   4194      -0.15     12.011
 16548       HEL1    468   POPC   H101   4194       0.15      1.008
 16549       CTL2    468   POPC   C211   4195      -0.18     12.011
 16550       HAL2    468   POPC   H11R   4195       0.09      1.008
 16551       HAL2    468   POPC   H11S   4195       0.09      1.008
 16552       CTL2    468   POPC   C212   4196      -0.18     12.011
 16553       HAL2    468   POPC   H12R   4196       0.09      1.008
 16554       HAL2    468   POPC   H12S   4196       0.09      1.008
 16555       CTL2    468   POPC   C213   4197      -0.18     12.011
 16556       HAL2    468   POPC   H13R   4197       0.09      1.008
 16557       HAL2    468   POPC   H13S   4197       0.09      1.008
 16558       CTL2    468   POPC   C214   4198      -0.18     12.011
 16559       HAL2    468   POPC   H14R   4198       0.09      1.008
 16560       HAL2    468   POPC   H14S   4198       0.09      1.008
 16561       CTL2    468   POPC   C215   4199      -0.18     12.011
 16562       HAL2    468   POPC   H15R   4199       0.09      1.008
 16563       HAL2    468   POPC   H15S   4199       0.09      1.008
 16564       CTL2    468   POPC   C216   4200      -0.18     12.011
 16565       HAL2    468   POPC   H16R   4200       0.09      1.008
 16566       HAL2    468   POPC   H16S   4200       0.09      1.008
 16567       CTL2    468   POPC   C217   4201      -0.18     12.011
 16568       HAL2    468   POPC   H17R   4201       0.09      1.008
 16569       HAL2    468   POPC   H17S   4201       0.09      1.008
 16570       CTL3    468   POPC   C218   4202      -0.27     12.011
 16571       HAL3    468   POPC   H18R   4202       0.09      1.008
 16572       HAL3    468   POPC   H18S   4202       0.09      1.008
 16573       HAL3    468   POPC   H18T   4202       0.09      1.008
 16574       CTL2    468   POPC    C33   4203      -0.18     12.011
 16575       HAL2    468   POPC    H3X   4203       0.09      1.008
 16576       HAL2    468   POPC    H3Y   4203       0.09      1.008
 16577       CTL2    468   POPC    C34   4204      -0.18     12.011
 16578       HAL2    468   POPC    H4X   4204       0.09      1.008
 16579       HAL2    468   POPC    H4Y   4204       0.09      1.008
 16580       CTL2    468   POPC    C35   4205      -0.18     12.011
 16581       HAL2    468   POPC    H5X   4205       0.09      1.008
 16582       HAL2    468   POPC    H5Y   4205       0.09      1.008
 16583       CTL2    468   POPC    C36   4206      -0.18     12.011
 16584       HAL2    468   POPC    H6X   4206       0.09      1.008
 16585       HAL2    468   POPC    H6Y   4206       0.09      1.008
 16586       CTL2    468   POPC    C37   4207      -0.18     12.011
 16587       HAL2    468   POPC    H7X   4207       0.09      1.008
 16588       HAL2    468   POPC    H7Y   4207       0.09      1.008
 16589       CTL2    468   POPC    C38   4208      -0.18     12.011
 16590       HAL2    468   POPC    H8X   4208       0.09      1.008
 16591       HAL2    468   POPC    H8Y   4208       0.09      1.008
 16592       CTL2    468   POPC    C39   4209      -0.18     12.011
 16593       HAL2    468   POPC    H9X   4209       0.09      1.008
 16594       HAL2    468   POPC    H9Y   4209       0.09      1.008
 16595       CTL2    468   POPC   C310   4210      -0.18     12.011
 16596       HAL2    468   POPC   H10X   4210       0.09      1.008
 16597       HAL2    468   POPC   H10Y   4210       0.09      1.008
 16598       CTL2    468   POPC   C311   4211      -0.18     12.011
 16599       HAL2    468   POPC   H11X   4211       0.09      1.008
 16600       HAL2    468   POPC   H11Y   4211       0.09      1.008
 16601       CTL2    468   POPC   C312   4212      -0.18     12.011
 16602       HAL2    468   POPC   H12X   4212       0.09      1.008
 16603       HAL2    468   POPC   H12Y   4212       0.09      1.008
 16604       CTL2    468   POPC   C313   4213      -0.18     12.011
 16605       HAL2    468   POPC   H13X   4213       0.09      1.008
 16606       HAL2    468   POPC   H13Y   4213       0.09      1.008
 16607       CTL2    468   POPC   C314   4214      -0.18     12.011
 16608       HAL2    468   POPC   H14X   4214       0.09      1.008
 16609       HAL2    468   POPC   H14Y   4214       0.09      1.008
 16610       CTL2    468   POPC   C315   4215      -0.18     12.011
 16611       HAL2    468   POPC   H15X   4215       0.09      1.008
 16612       HAL2    468   POPC   H15Y   4215       0.09      1.008
 16613       CTL3    468   POPC   C316   4216      -0.27     12.011
 16614       HAL3    468   POPC   H16X   4216       0.09      1.008
 16615       HAL3    468   POPC   H16Y   4216       0.09      1.008
 16616       HAL3    468   POPC   H16Z   4216       0.09      1.008   ; qtot 0
; residue 469 POPC rtp POPC q  0.0
 16617        NTL    469   POPC      N   4217       -0.6     14.007
 16618       CTL2    469   POPC    C12   4217       -0.1     12.011
 16619         HL    469   POPC   H12A   4217       0.25      1.008
 16620         HL    469   POPC   H12B   4217       0.25      1.008
 16621       CTL5    469   POPC    C13   4217      -0.35     12.011
 16622         HL    469   POPC   H13A   4217       0.25      1.008
 16623         HL    469   POPC   H13B   4217       0.25      1.008
 16624         HL    469   POPC   H13C   4217       0.25      1.008
 16625       CTL5    469   POPC    C14   4217      -0.35     12.011
 16626         HL    469   POPC   H14A   4217       0.25      1.008
 16627         HL    469   POPC   H14B   4217       0.25      1.008
 16628         HL    469   POPC   H14C   4217       0.25      1.008
 16629       CTL5    469   POPC    C15   4217      -0.35     12.011
 16630         HL    469   POPC   H15A   4217       0.25      1.008
 16631         HL    469   POPC   H15B   4217       0.25      1.008
 16632         HL    469   POPC   H15C   4217       0.25      1.008
 16633       CTL2    469   POPC    C11   4218      -0.08     12.011
 16634       HAL2    469   POPC   H11A   4218       0.09      1.008
 16635       HAL2    469   POPC   H11B   4218       0.09      1.008
 16636         PL    469   POPC      P   4218        1.5     30.974
 16637        O2L    469   POPC    O13   4218      -0.78    15.9994
 16638        O2L    469   POPC    O14   4218      -0.78    15.9994
 16639       OSLP    469   POPC    O12   4218      -0.57    15.9994
 16640       OSLP    469   POPC    O11   4218      -0.57    15.9994
 16641       CTL2    469   POPC     C1   4218      -0.08     12.011
 16642       HAL2    469   POPC     HA   4218       0.09      1.008
 16643       HAL2    469   POPC     HB   4218       0.09      1.008
 16644       CTL1    469   POPC     C2   4219       0.17     12.011
 16645       HAL1    469   POPC     HS   4219       0.09      1.008
 16646        OSL    469   POPC    O21   4219      -0.49    15.9994
 16647         CL    469   POPC    C21   4219        0.9     12.011
 16648        OBL    469   POPC    O22   4219      -0.63    15.9994
 16649       CTL2    469   POPC    C22   4219      -0.22     12.011
 16650       HAL2    469   POPC    H2R   4219       0.09      1.008
 16651       HAL2    469   POPC    H2S   4219       0.09      1.008
 16652       CTL2    469   POPC     C3   4220       0.08     12.011
 16653       HAL2    469   POPC     HX   4220       0.09      1.008
 16654       HAL2    469   POPC     HY   4220       0.09      1.008
 16655        OSL    469   POPC    O31   4220      -0.49    15.9994
 16656         CL    469   POPC    C31   4220        0.9     12.011
 16657        OBL    469   POPC    O32   4220      -0.63    15.9994
 16658       CTL2    469   POPC    C32   4220      -0.22     12.011
 16659       HAL2    469   POPC    H2X   4220       0.09      1.008
 16660       HAL2    469   POPC    H2Y   4220       0.09      1.008
 16661       CTL2    469   POPC    C23   4221      -0.18     12.011
 16662       HAL2    469   POPC    H3R   4221       0.09      1.008
 16663       HAL2    469   POPC    H3S   4221       0.09      1.008
 16664       CTL2    469   POPC    C24   4222      -0.18     12.011
 16665       HAL2    469   POPC    H4R   4222       0.09      1.008
 16666       HAL2    469   POPC    H4S   4222       0.09      1.008
 16667       CTL2    469   POPC    C25   4223      -0.18     12.011
 16668       HAL2    469   POPC    H5R   4223       0.09      1.008
 16669       HAL2    469   POPC    H5S   4223       0.09      1.008
 16670       CTL2    469   POPC    C26   4224      -0.18     12.011
 16671       HAL2    469   POPC    H6R   4224       0.09      1.008
 16672       HAL2    469   POPC    H6S   4224       0.09      1.008
 16673       CTL2    469   POPC    C27   4225      -0.18     12.011
 16674       HAL2    469   POPC    H7R   4225       0.09      1.008
 16675       HAL2    469   POPC    H7S   4225       0.09      1.008
 16676       CTL2    469   POPC    C28   4226      -0.18     12.011
 16677       HAL2    469   POPC    H8R   4226       0.09      1.008
 16678       HAL2    469   POPC    H8S   4226       0.09      1.008
 16679       CEL1    469   POPC    C29   4227      -0.15     12.011
 16680       HEL1    469   POPC    H91   4227       0.15      1.008
 16681       CEL1    469   POPC   C210   4228      -0.15     12.011
 16682       HEL1    469   POPC   H101   4228       0.15      1.008
 16683       CTL2    469   POPC   C211   4229      -0.18     12.011
 16684       HAL2    469   POPC   H11R   4229       0.09      1.008
 16685       HAL2    469   POPC   H11S   4229       0.09      1.008
 16686       CTL2    469   POPC   C212   4230      -0.18     12.011
 16687       HAL2    469   POPC   H12R   4230       0.09      1.008
 16688       HAL2    469   POPC   H12S   4230       0.09      1.008
 16689       CTL2    469   POPC   C213   4231      -0.18     12.011
 16690       HAL2    469   POPC   H13R   4231       0.09      1.008
 16691       HAL2    469   POPC   H13S   4231       0.09      1.008
 16692       CTL2    469   POPC   C214   4232      -0.18     12.011
 16693       HAL2    469   POPC   H14R   4232       0.09      1.008
 16694       HAL2    469   POPC   H14S   4232       0.09      1.008
 16695       CTL2    469   POPC   C215   4233      -0.18     12.011
 16696       HAL2    469   POPC   H15R   4233       0.09      1.008
 16697       HAL2    469   POPC   H15S   4233       0.09      1.008
 16698       CTL2    469   POPC   C216   4234      -0.18     12.011
 16699       HAL2    469   POPC   H16R   4234       0.09      1.008
 16700       HAL2    469   POPC   H16S   4234       0.09      1.008
 16701       CTL2    469   POPC   C217   4235      -0.18     12.011
 16702       HAL2    469   POPC   H17R   4235       0.09      1.008
 16703       HAL2    469   POPC   H17S   4235       0.09      1.008
 16704       CTL3    469   POPC   C218   4236      -0.27     12.011
 16705       HAL3    469   POPC   H18R   4236       0.09      1.008
 16706       HAL3    469   POPC   H18S   4236       0.09      1.008
 16707       HAL3    469   POPC   H18T   4236       0.09      1.008
 16708       CTL2    469   POPC    C33   4237      -0.18     12.011
 16709       HAL2    469   POPC    H3X   4237       0.09      1.008
 16710       HAL2    469   POPC    H3Y   4237       0.09      1.008
 16711       CTL2    469   POPC    C34   4238      -0.18     12.011
 16712       HAL2    469   POPC    H4X   4238       0.09      1.008
 16713       HAL2    469   POPC    H4Y   4238       0.09      1.008
 16714       CTL2    469   POPC    C35   4239      -0.18     12.011
 16715       HAL2    469   POPC    H5X   4239       0.09      1.008
 16716       HAL2    469   POPC    H5Y   4239       0.09      1.008
 16717       CTL2    469   POPC    C36   4240      -0.18     12.011
 16718       HAL2    469   POPC    H6X   4240       0.09      1.008
 16719       HAL2    469   POPC    H6Y   4240       0.09      1.008
 16720       CTL2    469   POPC    C37   4241      -0.18     12.011
 16721       HAL2    469   POPC    H7X   4241       0.09      1.008
 16722       HAL2    469   POPC    H7Y   4241       0.09      1.008
 16723       CTL2    469   POPC    C38   4242      -0.18     12.011
 16724       HAL2    469   POPC    H8X   4242       0.09      1.008
 16725       HAL2    469   POPC    H8Y   4242       0.09      1.008
 16726       CTL2    469   POPC    C39   4243      -0.18     12.011
 16727       HAL2    469   POPC    H9X   4243       0.09      1.008
 16728       HAL2    469   POPC    H9Y   4243       0.09      1.008
 16729       CTL2    469   POPC   C310   4244      -0.18     12.011
 16730       HAL2    469   POPC   H10X   4244       0.09      1.008
 16731       HAL2    469   POPC   H10Y   4244       0.09      1.008
 16732       CTL2    469   POPC   C311   4245      -0.18     12.011
 16733       HAL2    469   POPC   H11X   4245       0.09      1.008
 16734       HAL2    469   POPC   H11Y   4245       0.09      1.008
 16735       CTL2    469   POPC   C312   4246      -0.18     12.011
 16736       HAL2    469   POPC   H12X   4246       0.09      1.008
 16737       HAL2    469   POPC   H12Y   4246       0.09      1.008
 16738       CTL2    469   POPC   C313   4247      -0.18     12.011
 16739       HAL2    469   POPC   H13X   4247       0.09      1.008
 16740       HAL2    469   POPC   H13Y   4247       0.09      1.008
 16741       CTL2    469   POPC   C314   4248      -0.18     12.011
 16742       HAL2    469   POPC   H14X   4248       0.09      1.008
 16743       HAL2    469   POPC   H14Y   4248       0.09      1.008
 16744       CTL2    469   POPC   C315   4249      -0.18     12.011
 16745       HAL2    469   POPC   H15X   4249       0.09      1.008
 16746       HAL2    469   POPC   H15Y   4249       0.09      1.008
 16747       CTL3    469   POPC   C316   4250      -0.27     12.011
 16748       HAL3    469   POPC   H16X   4250       0.09      1.008
 16749       HAL3    469   POPC   H16Y   4250       0.09      1.008
 16750       HAL3    469   POPC   H16Z   4250       0.09      1.008   ; qtot 0
; residue 470 POPC rtp POPC q  0.0
 16751        NTL    470   POPC      N   4251       -0.6     14.007
 16752       CTL2    470   POPC    C12   4251       -0.1     12.011
 16753         HL    470   POPC   H12A   4251       0.25      1.008
 16754         HL    470   POPC   H12B   4251       0.25      1.008
 16755       CTL5    470   POPC    C13   4251      -0.35     12.011
 16756         HL    470   POPC   H13A   4251       0.25      1.008
 16757         HL    470   POPC   H13B   4251       0.25      1.008
 16758         HL    470   POPC   H13C   4251       0.25      1.008
 16759       CTL5    470   POPC    C14   4251      -0.35     12.011
 16760         HL    470   POPC   H14A   4251       0.25      1.008
 16761         HL    470   POPC   H14B   4251       0.25      1.008
 16762         HL    470   POPC   H14C   4251       0.25      1.008
 16763       CTL5    470   POPC    C15   4251      -0.35     12.011
 16764         HL    470   POPC   H15A   4251       0.25      1.008
 16765         HL    470   POPC   H15B   4251       0.25      1.008
 16766         HL    470   POPC   H15C   4251       0.25      1.008
 16767       CTL2    470   POPC    C11   4252      -0.08     12.011
 16768       HAL2    470   POPC   H11A   4252       0.09      1.008
 16769       HAL2    470   POPC   H11B   4252       0.09      1.008
 16770         PL    470   POPC      P   4252        1.5     30.974
 16771        O2L    470   POPC    O13   4252      -0.78    15.9994
 16772        O2L    470   POPC    O14   4252      -0.78    15.9994
 16773       OSLP    470   POPC    O12   4252      -0.57    15.9994
 16774       OSLP    470   POPC    O11   4252      -0.57    15.9994
 16775       CTL2    470   POPC     C1   4252      -0.08     12.011
 16776       HAL2    470   POPC     HA   4252       0.09      1.008
 16777       HAL2    470   POPC     HB   4252       0.09      1.008
 16778       CTL1    470   POPC     C2   4253       0.17     12.011
 16779       HAL1    470   POPC     HS   4253       0.09      1.008
 16780        OSL    470   POPC    O21   4253      -0.49    15.9994
 16781         CL    470   POPC    C21   4253        0.9     12.011
 16782        OBL    470   POPC    O22   4253      -0.63    15.9994
 16783       CTL2    470   POPC    C22   4253      -0.22     12.011
 16784       HAL2    470   POPC    H2R   4253       0.09      1.008
 16785       HAL2    470   POPC    H2S   4253       0.09      1.008
 16786       CTL2    470   POPC     C3   4254       0.08     12.011
 16787       HAL2    470   POPC     HX   4254       0.09      1.008
 16788       HAL2    470   POPC     HY   4254       0.09      1.008
 16789        OSL    470   POPC    O31   4254      -0.49    15.9994
 16790         CL    470   POPC    C31   4254        0.9     12.011
 16791        OBL    470   POPC    O32   4254      -0.63    15.9994
 16792       CTL2    470   POPC    C32   4254      -0.22     12.011
 16793       HAL2    470   POPC    H2X   4254       0.09      1.008
 16794       HAL2    470   POPC    H2Y   4254       0.09      1.008
 16795       CTL2    470   POPC    C23   4255      -0.18     12.011
 16796       HAL2    470   POPC    H3R   4255       0.09      1.008
 16797       HAL2    470   POPC    H3S   4255       0.09      1.008
 16798       CTL2    470   POPC    C24   4256      -0.18     12.011
 16799       HAL2    470   POPC    H4R   4256       0.09      1.008
 16800       HAL2    470   POPC    H4S   4256       0.09      1.008
 16801       CTL2    470   POPC    C25   4257      -0.18     12.011
 16802       HAL2    470   POPC    H5R   4257       0.09      1.008
 16803       HAL2    470   POPC    H5S   4257       0.09      1.008
 16804       CTL2    470   POPC    C26   4258      -0.18     12.011
 16805       HAL2    470   POPC    H6R   4258       0.09      1.008
 16806       HAL2    470   POPC    H6S   4258       0.09      1.008
 16807       CTL2    470   POPC    C27   4259      -0.18     12.011
 16808       HAL2    470   POPC    H7R   4259       0.09      1.008
 16809       HAL2    470   POPC    H7S   4259       0.09      1.008
 16810       CTL2    470   POPC    C28   4260      -0.18     12.011
 16811       HAL2    470   POPC    H8R   4260       0.09      1.008
 16812       HAL2    470   POPC    H8S   4260       0.09      1.008
 16813       CEL1    470   POPC    C29   4261      -0.15     12.011
 16814       HEL1    470   POPC    H91   4261       0.15      1.008
 16815       CEL1    470   POPC   C210   4262      -0.15     12.011
 16816       HEL1    470   POPC   H101   4262       0.15      1.008
 16817       CTL2    470   POPC   C211   4263      -0.18     12.011
 16818       HAL2    470   POPC   H11R   4263       0.09      1.008
 16819       HAL2    470   POPC   H11S   4263       0.09      1.008
 16820       CTL2    470   POPC   C212   4264      -0.18     12.011
 16821       HAL2    470   POPC   H12R   4264       0.09      1.008
 16822       HAL2    470   POPC   H12S   4264       0.09      1.008
 16823       CTL2    470   POPC   C213   4265      -0.18     12.011
 16824       HAL2    470   POPC   H13R   4265       0.09      1.008
 16825       HAL2    470   POPC   H13S   4265       0.09      1.008
 16826       CTL2    470   POPC   C214   4266      -0.18     12.011
 16827       HAL2    470   POPC   H14R   4266       0.09      1.008
 16828       HAL2    470   POPC   H14S   4266       0.09      1.008
 16829       CTL2    470   POPC   C215   4267      -0.18     12.011
 16830       HAL2    470   POPC   H15R   4267       0.09      1.008
 16831       HAL2    470   POPC   H15S   4267       0.09      1.008
 16832       CTL2    470   POPC   C216   4268      -0.18     12.011
 16833       HAL2    470   POPC   H16R   4268       0.09      1.008
 16834       HAL2    470   POPC   H16S   4268       0.09      1.008
 16835       CTL2    470   POPC   C217   4269      -0.18     12.011
 16836       HAL2    470   POPC   H17R   4269       0.09      1.008
 16837       HAL2    470   POPC   H17S   4269       0.09      1.008
 16838       CTL3    470   POPC   C218   4270      -0.27     12.011
 16839       HAL3    470   POPC   H18R   4270       0.09      1.008
 16840       HAL3    470   POPC   H18S   4270       0.09      1.008
 16841       HAL3    470   POPC   H18T   4270       0.09      1.008
 16842       CTL2    470   POPC    C33   4271      -0.18     12.011
 16843       HAL2    470   POPC    H3X   4271       0.09      1.008
 16844       HAL2    470   POPC    H3Y   4271       0.09      1.008
 16845       CTL2    470   POPC    C34   4272      -0.18     12.011
 16846       HAL2    470   POPC    H4X   4272       0.09      1.008
 16847       HAL2    470   POPC    H4Y   4272       0.09      1.008
 16848       CTL2    470   POPC    C35   4273      -0.18     12.011
 16849       HAL2    470   POPC    H5X   4273       0.09      1.008
 16850       HAL2    470   POPC    H5Y   4273       0.09      1.008
 16851       CTL2    470   POPC    C36   4274      -0.18     12.011
 16852       HAL2    470   POPC    H6X   4274       0.09      1.008
 16853       HAL2    470   POPC    H6Y   4274       0.09      1.008
 16854       CTL2    470   POPC    C37   4275      -0.18     12.011
 16855       HAL2    470   POPC    H7X   4275       0.09      1.008
 16856       HAL2    470   POPC    H7Y   4275       0.09      1.008
 16857       CTL2    470   POPC    C38   4276      -0.18     12.011
 16858       HAL2    470   POPC    H8X   4276       0.09      1.008
 16859       HAL2    470   POPC    H8Y   4276       0.09      1.008
 16860       CTL2    470   POPC    C39   4277      -0.18     12.011
 16861       HAL2    470   POPC    H9X   4277       0.09      1.008
 16862       HAL2    470   POPC    H9Y   4277       0.09      1.008
 16863       CTL2    470   POPC   C310   4278      -0.18     12.011
 16864       HAL2    470   POPC   H10X   4278       0.09      1.008
 16865       HAL2    470   POPC   H10Y   4278       0.09      1.008
 16866       CTL2    470   POPC   C311   4279      -0.18     12.011
 16867       HAL2    470   POPC   H11X   4279       0.09      1.008
 16868       HAL2    470   POPC   H11Y   4279       0.09      1.008
 16869       CTL2    470   POPC   C312   4280      -0.18     12.011
 16870       HAL2    470   POPC   H12X   4280       0.09      1.008
 16871       HAL2    470   POPC   H12Y   4280       0.09      1.008
 16872       CTL2    470   POPC   C313   4281      -0.18     12.011
 16873       HAL2    470   POPC   H13X   4281       0.09      1.008
 16874       HAL2    470   POPC   H13Y   4281       0.09      1.008
 16875       CTL2    470   POPC   C314   4282      -0.18     12.011
 16876       HAL2    470   POPC   H14X   4282       0.09      1.008
 16877       HAL2    470   POPC   H14Y   4282       0.09      1.008
 16878       CTL2    470   POPC   C315   4283      -0.18     12.011
 16879       HAL2    470   POPC   H15X   4283       0.09      1.008
 16880       HAL2    470   POPC   H15Y   4283       0.09      1.008
 16881       CTL3    470   POPC   C316   4284      -0.27     12.011
 16882       HAL3    470   POPC   H16X   4284       0.09      1.008
 16883       HAL3    470   POPC   H16Y   4284       0.09      1.008
 16884       HAL3    470   POPC   H16Z   4284       0.09      1.008   ; qtot 0
; residue 471 POPC rtp POPC q  0.0
 16885        NTL    471   POPC      N   4285       -0.6     14.007
 16886       CTL2    471   POPC    C12   4285       -0.1     12.011
 16887         HL    471   POPC   H12A   4285       0.25      1.008
 16888         HL    471   POPC   H12B   4285       0.25      1.008
 16889       CTL5    471   POPC    C13   4285      -0.35     12.011
 16890         HL    471   POPC   H13A   4285       0.25      1.008
 16891         HL    471   POPC   H13B   4285       0.25      1.008
 16892         HL    471   POPC   H13C   4285       0.25      1.008
 16893       CTL5    471   POPC    C14   4285      -0.35     12.011
 16894         HL    471   POPC   H14A   4285       0.25      1.008
 16895         HL    471   POPC   H14B   4285       0.25      1.008
 16896         HL    471   POPC   H14C   4285       0.25      1.008
 16897       CTL5    471   POPC    C15   4285      -0.35     12.011
 16898         HL    471   POPC   H15A   4285       0.25      1.008
 16899         HL    471   POPC   H15B   4285       0.25      1.008
 16900         HL    471   POPC   H15C   4285       0.25      1.008
 16901       CTL2    471   POPC    C11   4286      -0.08     12.011
 16902       HAL2    471   POPC   H11A   4286       0.09      1.008
 16903       HAL2    471   POPC   H11B   4286       0.09      1.008
 16904         PL    471   POPC      P   4286        1.5     30.974
 16905        O2L    471   POPC    O13   4286      -0.78    15.9994
 16906        O2L    471   POPC    O14   4286      -0.78    15.9994
 16907       OSLP    471   POPC    O12   4286      -0.57    15.9994
 16908       OSLP    471   POPC    O11   4286      -0.57    15.9994
 16909       CTL2    471   POPC     C1   4286      -0.08     12.011
 16910       HAL2    471   POPC     HA   4286       0.09      1.008
 16911       HAL2    471   POPC     HB   4286       0.09      1.008
 16912       CTL1    471   POPC     C2   4287       0.17     12.011
 16913       HAL1    471   POPC     HS   4287       0.09      1.008
 16914        OSL    471   POPC    O21   4287      -0.49    15.9994
 16915         CL    471   POPC    C21   4287        0.9     12.011
 16916        OBL    471   POPC    O22   4287      -0.63    15.9994
 16917       CTL2    471   POPC    C22   4287      -0.22     12.011
 16918       HAL2    471   POPC    H2R   4287       0.09      1.008
 16919       HAL2    471   POPC    H2S   4287       0.09      1.008
 16920       CTL2    471   POPC     C3   4288       0.08     12.011
 16921       HAL2    471   POPC     HX   4288       0.09      1.008
 16922       HAL2    471   POPC     HY   4288       0.09      1.008
 16923        OSL    471   POPC    O31   4288      -0.49    15.9994
 16924         CL    471   POPC    C31   4288        0.9     12.011
 16925        OBL    471   POPC    O32   4288      -0.63    15.9994
 16926       CTL2    471   POPC    C32   4288      -0.22     12.011
 16927       HAL2    471   POPC    H2X   4288       0.09      1.008
 16928       HAL2    471   POPC    H2Y   4288       0.09      1.008
 16929       CTL2    471   POPC    C23   4289      -0.18     12.011
 16930       HAL2    471   POPC    H3R   4289       0.09      1.008
 16931       HAL2    471   POPC    H3S   4289       0.09      1.008
 16932       CTL2    471   POPC    C24   4290      -0.18     12.011
 16933       HAL2    471   POPC    H4R   4290       0.09      1.008
 16934       HAL2    471   POPC    H4S   4290       0.09      1.008
 16935       CTL2    471   POPC    C25   4291      -0.18     12.011
 16936       HAL2    471   POPC    H5R   4291       0.09      1.008
 16937       HAL2    471   POPC    H5S   4291       0.09      1.008
 16938       CTL2    471   POPC    C26   4292      -0.18     12.011
 16939       HAL2    471   POPC    H6R   4292       0.09      1.008
 16940       HAL2    471   POPC    H6S   4292       0.09      1.008
 16941       CTL2    471   POPC    C27   4293      -0.18     12.011
 16942       HAL2    471   POPC    H7R   4293       0.09      1.008
 16943       HAL2    471   POPC    H7S   4293       0.09      1.008
 16944       CTL2    471   POPC    C28   4294      -0.18     12.011
 16945       HAL2    471   POPC    H8R   4294       0.09      1.008
 16946       HAL2    471   POPC    H8S   4294       0.09      1.008
 16947       CEL1    471   POPC    C29   4295      -0.15     12.011
 16948       HEL1    471   POPC    H91   4295       0.15      1.008
 16949       CEL1    471   POPC   C210   4296      -0.15     12.011
 16950       HEL1    471   POPC   H101   4296       0.15      1.008
 16951       CTL2    471   POPC   C211   4297      -0.18     12.011
 16952       HAL2    471   POPC   H11R   4297       0.09      1.008
 16953       HAL2    471   POPC   H11S   4297       0.09      1.008
 16954       CTL2    471   POPC   C212   4298      -0.18     12.011
 16955       HAL2    471   POPC   H12R   4298       0.09      1.008
 16956       HAL2    471   POPC   H12S   4298       0.09      1.008
 16957       CTL2    471   POPC   C213   4299      -0.18     12.011
 16958       HAL2    471   POPC   H13R   4299       0.09      1.008
 16959       HAL2    471   POPC   H13S   4299       0.09      1.008
 16960       CTL2    471   POPC   C214   4300      -0.18     12.011
 16961       HAL2    471   POPC   H14R   4300       0.09      1.008
 16962       HAL2    471   POPC   H14S   4300       0.09      1.008
 16963       CTL2    471   POPC   C215   4301      -0.18     12.011
 16964       HAL2    471   POPC   H15R   4301       0.09      1.008
 16965       HAL2    471   POPC   H15S   4301       0.09      1.008
 16966       CTL2    471   POPC   C216   4302      -0.18     12.011
 16967       HAL2    471   POPC   H16R   4302       0.09      1.008
 16968       HAL2    471   POPC   H16S   4302       0.09      1.008
 16969       CTL2    471   POPC   C217   4303      -0.18     12.011
 16970       HAL2    471   POPC   H17R   4303       0.09      1.008
 16971       HAL2    471   POPC   H17S   4303       0.09      1.008
 16972       CTL3    471   POPC   C218   4304      -0.27     12.011
 16973       HAL3    471   POPC   H18R   4304       0.09      1.008
 16974       HAL3    471   POPC   H18S   4304       0.09      1.008
 16975       HAL3    471   POPC   H18T   4304       0.09      1.008
 16976       CTL2    471   POPC    C33   4305      -0.18     12.011
 16977       HAL2    471   POPC    H3X   4305       0.09      1.008
 16978       HAL2    471   POPC    H3Y   4305       0.09      1.008
 16979       CTL2    471   POPC    C34   4306      -0.18     12.011
 16980       HAL2    471   POPC    H4X   4306       0.09      1.008
 16981       HAL2    471   POPC    H4Y   4306       0.09      1.008
 16982       CTL2    471   POPC    C35   4307      -0.18     12.011
 16983       HAL2    471   POPC    H5X   4307       0.09      1.008
 16984       HAL2    471   POPC    H5Y   4307       0.09      1.008
 16985       CTL2    471   POPC    C36   4308      -0.18     12.011
 16986       HAL2    471   POPC    H6X   4308       0.09      1.008
 16987       HAL2    471   POPC    H6Y   4308       0.09      1.008
 16988       CTL2    471   POPC    C37   4309      -0.18     12.011
 16989       HAL2    471   POPC    H7X   4309       0.09      1.008
 16990       HAL2    471   POPC    H7Y   4309       0.09      1.008
 16991       CTL2    471   POPC    C38   4310      -0.18     12.011
 16992       HAL2    471   POPC    H8X   4310       0.09      1.008
 16993       HAL2    471   POPC    H8Y   4310       0.09      1.008
 16994       CTL2    471   POPC    C39   4311      -0.18     12.011
 16995       HAL2    471   POPC    H9X   4311       0.09      1.008
 16996       HAL2    471   POPC    H9Y   4311       0.09      1.008
 16997       CTL2    471   POPC   C310   4312      -0.18     12.011
 16998       HAL2    471   POPC   H10X   4312       0.09      1.008
 16999       HAL2    471   POPC   H10Y   4312       0.09      1.008
 17000       CTL2    471   POPC   C311   4313      -0.18     12.011
 17001       HAL2    471   POPC   H11X   4313       0.09      1.008
 17002       HAL2    471   POPC   H11Y   4313       0.09      1.008
 17003       CTL2    471   POPC   C312   4314      -0.18     12.011
 17004       HAL2    471   POPC   H12X   4314       0.09      1.008
 17005       HAL2    471   POPC   H12Y   4314       0.09      1.008
 17006       CTL2    471   POPC   C313   4315      -0.18     12.011
 17007       HAL2    471   POPC   H13X   4315       0.09      1.008
 17008       HAL2    471   POPC   H13Y   4315       0.09      1.008
 17009       CTL2    471   POPC   C314   4316      -0.18     12.011
 17010       HAL2    471   POPC   H14X   4316       0.09      1.008
 17011       HAL2    471   POPC   H14Y   4316       0.09      1.008
 17012       CTL2    471   POPC   C315   4317      -0.18     12.011
 17013       HAL2    471   POPC   H15X   4317       0.09      1.008
 17014       HAL2    471   POPC   H15Y   4317       0.09      1.008
 17015       CTL3    471   POPC   C316   4318      -0.27     12.011
 17016       HAL3    471   POPC   H16X   4318       0.09      1.008
 17017       HAL3    471   POPC   H16Y   4318       0.09      1.008
 17018       HAL3    471   POPC   H16Z   4318       0.09      1.008   ; qtot 0
; residue 472 POPC rtp POPC q  0.0
 17019        NTL    472   POPC      N   4319       -0.6     14.007
 17020       CTL2    472   POPC    C12   4319       -0.1     12.011
 17021         HL    472   POPC   H12A   4319       0.25      1.008
 17022         HL    472   POPC   H12B   4319       0.25      1.008
 17023       CTL5    472   POPC    C13   4319      -0.35     12.011
 17024         HL    472   POPC   H13A   4319       0.25      1.008
 17025         HL    472   POPC   H13B   4319       0.25      1.008
 17026         HL    472   POPC   H13C   4319       0.25      1.008
 17027       CTL5    472   POPC    C14   4319      -0.35     12.011
 17028         HL    472   POPC   H14A   4319       0.25      1.008
 17029         HL    472   POPC   H14B   4319       0.25      1.008
 17030         HL    472   POPC   H14C   4319       0.25      1.008
 17031       CTL5    472   POPC    C15   4319      -0.35     12.011
 17032         HL    472   POPC   H15A   4319       0.25      1.008
 17033         HL    472   POPC   H15B   4319       0.25      1.008
 17034         HL    472   POPC   H15C   4319       0.25      1.008
 17035       CTL2    472   POPC    C11   4320      -0.08     12.011
 17036       HAL2    472   POPC   H11A   4320       0.09      1.008
 17037       HAL2    472   POPC   H11B   4320       0.09      1.008
 17038         PL    472   POPC      P   4320        1.5     30.974
 17039        O2L    472   POPC    O13   4320      -0.78    15.9994
 17040        O2L    472   POPC    O14   4320      -0.78    15.9994
 17041       OSLP    472   POPC    O12   4320      -0.57    15.9994
 17042       OSLP    472   POPC    O11   4320      -0.57    15.9994
 17043       CTL2    472   POPC     C1   4320      -0.08     12.011
 17044       HAL2    472   POPC     HA   4320       0.09      1.008
 17045       HAL2    472   POPC     HB   4320       0.09      1.008
 17046       CTL1    472   POPC     C2   4321       0.17     12.011
 17047       HAL1    472   POPC     HS   4321       0.09      1.008
 17048        OSL    472   POPC    O21   4321      -0.49    15.9994
 17049         CL    472   POPC    C21   4321        0.9     12.011
 17050        OBL    472   POPC    O22   4321      -0.63    15.9994
 17051       CTL2    472   POPC    C22   4321      -0.22     12.011
 17052       HAL2    472   POPC    H2R   4321       0.09      1.008
 17053       HAL2    472   POPC    H2S   4321       0.09      1.008
 17054       CTL2    472   POPC     C3   4322       0.08     12.011
 17055       HAL2    472   POPC     HX   4322       0.09      1.008
 17056       HAL2    472   POPC     HY   4322       0.09      1.008
 17057        OSL    472   POPC    O31   4322      -0.49    15.9994
 17058         CL    472   POPC    C31   4322        0.9     12.011
 17059        OBL    472   POPC    O32   4322      -0.63    15.9994
 17060       CTL2    472   POPC    C32   4322      -0.22     12.011
 17061       HAL2    472   POPC    H2X   4322       0.09      1.008
 17062       HAL2    472   POPC    H2Y   4322       0.09      1.008
 17063       CTL2    472   POPC    C23   4323      -0.18     12.011
 17064       HAL2    472   POPC    H3R   4323       0.09      1.008
 17065       HAL2    472   POPC    H3S   4323       0.09      1.008
 17066       CTL2    472   POPC    C24   4324      -0.18     12.011
 17067       HAL2    472   POPC    H4R   4324       0.09      1.008
 17068       HAL2    472   POPC    H4S   4324       0.09      1.008
 17069       CTL2    472   POPC    C25   4325      -0.18     12.011
 17070       HAL2    472   POPC    H5R   4325       0.09      1.008
 17071       HAL2    472   POPC    H5S   4325       0.09      1.008
 17072       CTL2    472   POPC    C26   4326      -0.18     12.011
 17073       HAL2    472   POPC    H6R   4326       0.09      1.008
 17074       HAL2    472   POPC    H6S   4326       0.09      1.008
 17075       CTL2    472   POPC    C27   4327      -0.18     12.011
 17076       HAL2    472   POPC    H7R   4327       0.09      1.008
 17077       HAL2    472   POPC    H7S   4327       0.09      1.008
 17078       CTL2    472   POPC    C28   4328      -0.18     12.011
 17079       HAL2    472   POPC    H8R   4328       0.09      1.008
 17080       HAL2    472   POPC    H8S   4328       0.09      1.008
 17081       CEL1    472   POPC    C29   4329      -0.15     12.011
 17082       HEL1    472   POPC    H91   4329       0.15      1.008
 17083       CEL1    472   POPC   C210   4330      -0.15     12.011
 17084       HEL1    472   POPC   H101   4330       0.15      1.008
 17085       CTL2    472   POPC   C211   4331      -0.18     12.011
 17086       HAL2    472   POPC   H11R   4331       0.09      1.008
 17087       HAL2    472   POPC   H11S   4331       0.09      1.008
 17088       CTL2    472   POPC   C212   4332      -0.18     12.011
 17089       HAL2    472   POPC   H12R   4332       0.09      1.008
 17090       HAL2    472   POPC   H12S   4332       0.09      1.008
 17091       CTL2    472   POPC   C213   4333      -0.18     12.011
 17092       HAL2    472   POPC   H13R   4333       0.09      1.008
 17093       HAL2    472   POPC   H13S   4333       0.09      1.008
 17094       CTL2    472   POPC   C214   4334      -0.18     12.011
 17095       HAL2    472   POPC   H14R   4334       0.09      1.008
 17096       HAL2    472   POPC   H14S   4334       0.09      1.008
 17097       CTL2    472   POPC   C215   4335      -0.18     12.011
 17098       HAL2    472   POPC   H15R   4335       0.09      1.008
 17099       HAL2    472   POPC   H15S   4335       0.09      1.008
 17100       CTL2    472   POPC   C216   4336      -0.18     12.011
 17101       HAL2    472   POPC   H16R   4336       0.09      1.008
 17102       HAL2    472   POPC   H16S   4336       0.09      1.008
 17103       CTL2    472   POPC   C217   4337      -0.18     12.011
 17104       HAL2    472   POPC   H17R   4337       0.09      1.008
 17105       HAL2    472   POPC   H17S   4337       0.09      1.008
 17106       CTL3    472   POPC   C218   4338      -0.27     12.011
 17107       HAL3    472   POPC   H18R   4338       0.09      1.008
 17108       HAL3    472   POPC   H18S   4338       0.09      1.008
 17109       HAL3    472   POPC   H18T   4338       0.09      1.008
 17110       CTL2    472   POPC    C33   4339      -0.18     12.011
 17111       HAL2    472   POPC    H3X   4339       0.09      1.008
 17112       HAL2    472   POPC    H3Y   4339       0.09      1.008
 17113       CTL2    472   POPC    C34   4340      -0.18     12.011
 17114       HAL2    472   POPC    H4X   4340       0.09      1.008
 17115       HAL2    472   POPC    H4Y   4340       0.09      1.008
 17116       CTL2    472   POPC    C35   4341      -0.18     12.011
 17117       HAL2    472   POPC    H5X   4341       0.09      1.008
 17118       HAL2    472   POPC    H5Y   4341       0.09      1.008
 17119       CTL2    472   POPC    C36   4342      -0.18     12.011
 17120       HAL2    472   POPC    H6X   4342       0.09      1.008
 17121       HAL2    472   POPC    H6Y   4342       0.09      1.008
 17122       CTL2    472   POPC    C37   4343      -0.18     12.011
 17123       HAL2    472   POPC    H7X   4343       0.09      1.008
 17124       HAL2    472   POPC    H7Y   4343       0.09      1.008
 17125       CTL2    472   POPC    C38   4344      -0.18     12.011
 17126       HAL2    472   POPC    H8X   4344       0.09      1.008
 17127       HAL2    472   POPC    H8Y   4344       0.09      1.008
 17128       CTL2    472   POPC    C39   4345      -0.18     12.011
 17129       HAL2    472   POPC    H9X   4345       0.09      1.008
 17130       HAL2    472   POPC    H9Y   4345       0.09      1.008
 17131       CTL2    472   POPC   C310   4346      -0.18     12.011
 17132       HAL2    472   POPC   H10X   4346       0.09      1.008
 17133       HAL2    472   POPC   H10Y   4346       0.09      1.008
 17134       CTL2    472   POPC   C311   4347      -0.18     12.011
 17135       HAL2    472   POPC   H11X   4347       0.09      1.008
 17136       HAL2    472   POPC   H11Y   4347       0.09      1.008
 17137       CTL2    472   POPC   C312   4348      -0.18     12.011
 17138       HAL2    472   POPC   H12X   4348       0.09      1.008
 17139       HAL2    472   POPC   H12Y   4348       0.09      1.008
 17140       CTL2    472   POPC   C313   4349      -0.18     12.011
 17141       HAL2    472   POPC   H13X   4349       0.09      1.008
 17142       HAL2    472   POPC   H13Y   4349       0.09      1.008
 17143       CTL2    472   POPC   C314   4350      -0.18     12.011
 17144       HAL2    472   POPC   H14X   4350       0.09      1.008
 17145       HAL2    472   POPC   H14Y   4350       0.09      1.008
 17146       CTL2    472   POPC   C315   4351      -0.18     12.011
 17147       HAL2    472   POPC   H15X   4351       0.09      1.008
 17148       HAL2    472   POPC   H15Y   4351       0.09      1.008
 17149       CTL3    472   POPC   C316   4352      -0.27     12.011
 17150       HAL3    472   POPC   H16X   4352       0.09      1.008
 17151       HAL3    472   POPC   H16Y   4352       0.09      1.008
 17152       HAL3    472   POPC   H16Z   4352       0.09      1.008   ; qtot 0
; residue 473 POPC rtp POPC q  0.0
 17153        NTL    473   POPC      N   4353       -0.6     14.007
 17154       CTL2    473   POPC    C12   4353       -0.1     12.011
 17155         HL    473   POPC   H12A   4353       0.25      1.008
 17156         HL    473   POPC   H12B   4353       0.25      1.008
 17157       CTL5    473   POPC    C13   4353      -0.35     12.011
 17158         HL    473   POPC   H13A   4353       0.25      1.008
 17159         HL    473   POPC   H13B   4353       0.25      1.008
 17160         HL    473   POPC   H13C   4353       0.25      1.008
 17161       CTL5    473   POPC    C14   4353      -0.35     12.011
 17162         HL    473   POPC   H14A   4353       0.25      1.008
 17163         HL    473   POPC   H14B   4353       0.25      1.008
 17164         HL    473   POPC   H14C   4353       0.25      1.008
 17165       CTL5    473   POPC    C15   4353      -0.35     12.011
 17166         HL    473   POPC   H15A   4353       0.25      1.008
 17167         HL    473   POPC   H15B   4353       0.25      1.008
 17168         HL    473   POPC   H15C   4353       0.25      1.008
 17169       CTL2    473   POPC    C11   4354      -0.08     12.011
 17170       HAL2    473   POPC   H11A   4354       0.09      1.008
 17171       HAL2    473   POPC   H11B   4354       0.09      1.008
 17172         PL    473   POPC      P   4354        1.5     30.974
 17173        O2L    473   POPC    O13   4354      -0.78    15.9994
 17174        O2L    473   POPC    O14   4354      -0.78    15.9994
 17175       OSLP    473   POPC    O12   4354      -0.57    15.9994
 17176       OSLP    473   POPC    O11   4354      -0.57    15.9994
 17177       CTL2    473   POPC     C1   4354      -0.08     12.011
 17178       HAL2    473   POPC     HA   4354       0.09      1.008
 17179       HAL2    473   POPC     HB   4354       0.09      1.008
 17180       CTL1    473   POPC     C2   4355       0.17     12.011
 17181       HAL1    473   POPC     HS   4355       0.09      1.008
 17182        OSL    473   POPC    O21   4355      -0.49    15.9994
 17183         CL    473   POPC    C21   4355        0.9     12.011
 17184        OBL    473   POPC    O22   4355      -0.63    15.9994
 17185       CTL2    473   POPC    C22   4355      -0.22     12.011
 17186       HAL2    473   POPC    H2R   4355       0.09      1.008
 17187       HAL2    473   POPC    H2S   4355       0.09      1.008
 17188       CTL2    473   POPC     C3   4356       0.08     12.011
 17189       HAL2    473   POPC     HX   4356       0.09      1.008
 17190       HAL2    473   POPC     HY   4356       0.09      1.008
 17191        OSL    473   POPC    O31   4356      -0.49    15.9994
 17192         CL    473   POPC    C31   4356        0.9     12.011
 17193        OBL    473   POPC    O32   4356      -0.63    15.9994
 17194       CTL2    473   POPC    C32   4356      -0.22     12.011
 17195       HAL2    473   POPC    H2X   4356       0.09      1.008
 17196       HAL2    473   POPC    H2Y   4356       0.09      1.008
 17197       CTL2    473   POPC    C23   4357      -0.18     12.011
 17198       HAL2    473   POPC    H3R   4357       0.09      1.008
 17199       HAL2    473   POPC    H3S   4357       0.09      1.008
 17200       CTL2    473   POPC    C24   4358      -0.18     12.011
 17201       HAL2    473   POPC    H4R   4358       0.09      1.008
 17202       HAL2    473   POPC    H4S   4358       0.09      1.008
 17203       CTL2    473   POPC    C25   4359      -0.18     12.011
 17204       HAL2    473   POPC    H5R   4359       0.09      1.008
 17205       HAL2    473   POPC    H5S   4359       0.09      1.008
 17206       CTL2    473   POPC    C26   4360      -0.18     12.011
 17207       HAL2    473   POPC    H6R   4360       0.09      1.008
 17208       HAL2    473   POPC    H6S   4360       0.09      1.008
 17209       CTL2    473   POPC    C27   4361      -0.18     12.011
 17210       HAL2    473   POPC    H7R   4361       0.09      1.008
 17211       HAL2    473   POPC    H7S   4361       0.09      1.008
 17212       CTL2    473   POPC    C28   4362      -0.18     12.011
 17213       HAL2    473   POPC    H8R   4362       0.09      1.008
 17214       HAL2    473   POPC    H8S   4362       0.09      1.008
 17215       CEL1    473   POPC    C29   4363      -0.15     12.011
 17216       HEL1    473   POPC    H91   4363       0.15      1.008
 17217       CEL1    473   POPC   C210   4364      -0.15     12.011
 17218       HEL1    473   POPC   H101   4364       0.15      1.008
 17219       CTL2    473   POPC   C211   4365      -0.18     12.011
 17220       HAL2    473   POPC   H11R   4365       0.09      1.008
 17221       HAL2    473   POPC   H11S   4365       0.09      1.008
 17222       CTL2    473   POPC   C212   4366      -0.18     12.011
 17223       HAL2    473   POPC   H12R   4366       0.09      1.008
 17224       HAL2    473   POPC   H12S   4366       0.09      1.008
 17225       CTL2    473   POPC   C213   4367      -0.18     12.011
 17226       HAL2    473   POPC   H13R   4367       0.09      1.008
 17227       HAL2    473   POPC   H13S   4367       0.09      1.008
 17228       CTL2    473   POPC   C214   4368      -0.18     12.011
 17229       HAL2    473   POPC   H14R   4368       0.09      1.008
 17230       HAL2    473   POPC   H14S   4368       0.09      1.008
 17231       CTL2    473   POPC   C215   4369      -0.18     12.011
 17232       HAL2    473   POPC   H15R   4369       0.09      1.008
 17233       HAL2    473   POPC   H15S   4369       0.09      1.008
 17234       CTL2    473   POPC   C216   4370      -0.18     12.011
 17235       HAL2    473   POPC   H16R   4370       0.09      1.008
 17236       HAL2    473   POPC   H16S   4370       0.09      1.008
 17237       CTL2    473   POPC   C217   4371      -0.18     12.011
 17238       HAL2    473   POPC   H17R   4371       0.09      1.008
 17239       HAL2    473   POPC   H17S   4371       0.09      1.008
 17240       CTL3    473   POPC   C218   4372      -0.27     12.011
 17241       HAL3    473   POPC   H18R   4372       0.09      1.008
 17242       HAL3    473   POPC   H18S   4372       0.09      1.008
 17243       HAL3    473   POPC   H18T   4372       0.09      1.008
 17244       CTL2    473   POPC    C33   4373      -0.18     12.011
 17245       HAL2    473   POPC    H3X   4373       0.09      1.008
 17246       HAL2    473   POPC    H3Y   4373       0.09      1.008
 17247       CTL2    473   POPC    C34   4374      -0.18     12.011
 17248       HAL2    473   POPC    H4X   4374       0.09      1.008
 17249       HAL2    473   POPC    H4Y   4374       0.09      1.008
 17250       CTL2    473   POPC    C35   4375      -0.18     12.011
 17251       HAL2    473   POPC    H5X   4375       0.09      1.008
 17252       HAL2    473   POPC    H5Y   4375       0.09      1.008
 17253       CTL2    473   POPC    C36   4376      -0.18     12.011
 17254       HAL2    473   POPC    H6X   4376       0.09      1.008
 17255       HAL2    473   POPC    H6Y   4376       0.09      1.008
 17256       CTL2    473   POPC    C37   4377      -0.18     12.011
 17257       HAL2    473   POPC    H7X   4377       0.09      1.008
 17258       HAL2    473   POPC    H7Y   4377       0.09      1.008
 17259       CTL2    473   POPC    C38   4378      -0.18     12.011
 17260       HAL2    473   POPC    H8X   4378       0.09      1.008
 17261       HAL2    473   POPC    H8Y   4378       0.09      1.008
 17262       CTL2    473   POPC    C39   4379      -0.18     12.011
 17263       HAL2    473   POPC    H9X   4379       0.09      1.008
 17264       HAL2    473   POPC    H9Y   4379       0.09      1.008
 17265       CTL2    473   POPC   C310   4380      -0.18     12.011
 17266       HAL2    473   POPC   H10X   4380       0.09      1.008
 17267       HAL2    473   POPC   H10Y   4380       0.09      1.008
 17268       CTL2    473   POPC   C311   4381      -0.18     12.011
 17269       HAL2    473   POPC   H11X   4381       0.09      1.008
 17270       HAL2    473   POPC   H11Y   4381       0.09      1.008
 17271       CTL2    473   POPC   C312   4382      -0.18     12.011
 17272       HAL2    473   POPC   H12X   4382       0.09      1.008
 17273       HAL2    473   POPC   H12Y   4382       0.09      1.008
 17274       CTL2    473   POPC   C313   4383      -0.18     12.011
 17275       HAL2    473   POPC   H13X   4383       0.09      1.008
 17276       HAL2    473   POPC   H13Y   4383       0.09      1.008
 17277       CTL2    473   POPC   C314   4384      -0.18     12.011
 17278       HAL2    473   POPC   H14X   4384       0.09      1.008
 17279       HAL2    473   POPC   H14Y   4384       0.09      1.008
 17280       CTL2    473   POPC   C315   4385      -0.18     12.011
 17281       HAL2    473   POPC   H15X   4385       0.09      1.008
 17282       HAL2    473   POPC   H15Y   4385       0.09      1.008
 17283       CTL3    473   POPC   C316   4386      -0.27     12.011
 17284       HAL3    473   POPC   H16X   4386       0.09      1.008
 17285       HAL3    473   POPC   H16Y   4386       0.09      1.008
 17286       HAL3    473   POPC   H16Z   4386       0.09      1.008   ; qtot 0
; residue 474 POPC rtp POPC q  0.0
 17287        NTL    474   POPC      N   4387       -0.6     14.007
 17288       CTL2    474   POPC    C12   4387       -0.1     12.011
 17289         HL    474   POPC   H12A   4387       0.25      1.008
 17290         HL    474   POPC   H12B   4387       0.25      1.008
 17291       CTL5    474   POPC    C13   4387      -0.35     12.011
 17292         HL    474   POPC   H13A   4387       0.25      1.008
 17293         HL    474   POPC   H13B   4387       0.25      1.008
 17294         HL    474   POPC   H13C   4387       0.25      1.008
 17295       CTL5    474   POPC    C14   4387      -0.35     12.011
 17296         HL    474   POPC   H14A   4387       0.25      1.008
 17297         HL    474   POPC   H14B   4387       0.25      1.008
 17298         HL    474   POPC   H14C   4387       0.25      1.008
 17299       CTL5    474   POPC    C15   4387      -0.35     12.011
 17300         HL    474   POPC   H15A   4387       0.25      1.008
 17301         HL    474   POPC   H15B   4387       0.25      1.008
 17302         HL    474   POPC   H15C   4387       0.25      1.008
 17303       CTL2    474   POPC    C11   4388      -0.08     12.011
 17304       HAL2    474   POPC   H11A   4388       0.09      1.008
 17305       HAL2    474   POPC   H11B   4388       0.09      1.008
 17306         PL    474   POPC      P   4388        1.5     30.974
 17307        O2L    474   POPC    O13   4388      -0.78    15.9994
 17308        O2L    474   POPC    O14   4388      -0.78    15.9994
 17309       OSLP    474   POPC    O12   4388      -0.57    15.9994
 17310       OSLP    474   POPC    O11   4388      -0.57    15.9994
 17311       CTL2    474   POPC     C1   4388      -0.08     12.011
 17312       HAL2    474   POPC     HA   4388       0.09      1.008
 17313       HAL2    474   POPC     HB   4388       0.09      1.008
 17314       CTL1    474   POPC     C2   4389       0.17     12.011
 17315       HAL1    474   POPC     HS   4389       0.09      1.008
 17316        OSL    474   POPC    O21   4389      -0.49    15.9994
 17317         CL    474   POPC    C21   4389        0.9     12.011
 17318        OBL    474   POPC    O22   4389      -0.63    15.9994
 17319       CTL2    474   POPC    C22   4389      -0.22     12.011
 17320       HAL2    474   POPC    H2R   4389       0.09      1.008
 17321       HAL2    474   POPC    H2S   4389       0.09      1.008
 17322       CTL2    474   POPC     C3   4390       0.08     12.011
 17323       HAL2    474   POPC     HX   4390       0.09      1.008
 17324       HAL2    474   POPC     HY   4390       0.09      1.008
 17325        OSL    474   POPC    O31   4390      -0.49    15.9994
 17326         CL    474   POPC    C31   4390        0.9     12.011
 17327        OBL    474   POPC    O32   4390      -0.63    15.9994
 17328       CTL2    474   POPC    C32   4390      -0.22     12.011
 17329       HAL2    474   POPC    H2X   4390       0.09      1.008
 17330       HAL2    474   POPC    H2Y   4390       0.09      1.008
 17331       CTL2    474   POPC    C23   4391      -0.18     12.011
 17332       HAL2    474   POPC    H3R   4391       0.09      1.008
 17333       HAL2    474   POPC    H3S   4391       0.09      1.008
 17334       CTL2    474   POPC    C24   4392      -0.18     12.011
 17335       HAL2    474   POPC    H4R   4392       0.09      1.008
 17336       HAL2    474   POPC    H4S   4392       0.09      1.008
 17337       CTL2    474   POPC    C25   4393      -0.18     12.011
 17338       HAL2    474   POPC    H5R   4393       0.09      1.008
 17339       HAL2    474   POPC    H5S   4393       0.09      1.008
 17340       CTL2    474   POPC    C26   4394      -0.18     12.011
 17341       HAL2    474   POPC    H6R   4394       0.09      1.008
 17342       HAL2    474   POPC    H6S   4394       0.09      1.008
 17343       CTL2    474   POPC    C27   4395      -0.18     12.011
 17344       HAL2    474   POPC    H7R   4395       0.09      1.008
 17345       HAL2    474   POPC    H7S   4395       0.09      1.008
 17346       CTL2    474   POPC    C28   4396      -0.18     12.011
 17347       HAL2    474   POPC    H8R   4396       0.09      1.008
 17348       HAL2    474   POPC    H8S   4396       0.09      1.008
 17349       CEL1    474   POPC    C29   4397      -0.15     12.011
 17350       HEL1    474   POPC    H91   4397       0.15      1.008
 17351       CEL1    474   POPC   C210   4398      -0.15     12.011
 17352       HEL1    474   POPC   H101   4398       0.15      1.008
 17353       CTL2    474   POPC   C211   4399      -0.18     12.011
 17354       HAL2    474   POPC   H11R   4399       0.09      1.008
 17355       HAL2    474   POPC   H11S   4399       0.09      1.008
 17356       CTL2    474   POPC   C212   4400      -0.18     12.011
 17357       HAL2    474   POPC   H12R   4400       0.09      1.008
 17358       HAL2    474   POPC   H12S   4400       0.09      1.008
 17359       CTL2    474   POPC   C213   4401      -0.18     12.011
 17360       HAL2    474   POPC   H13R   4401       0.09      1.008
 17361       HAL2    474   POPC   H13S   4401       0.09      1.008
 17362       CTL2    474   POPC   C214   4402      -0.18     12.011
 17363       HAL2    474   POPC   H14R   4402       0.09      1.008
 17364       HAL2    474   POPC   H14S   4402       0.09      1.008
 17365       CTL2    474   POPC   C215   4403      -0.18     12.011
 17366       HAL2    474   POPC   H15R   4403       0.09      1.008
 17367       HAL2    474   POPC   H15S   4403       0.09      1.008
 17368       CTL2    474   POPC   C216   4404      -0.18     12.011
 17369       HAL2    474   POPC   H16R   4404       0.09      1.008
 17370       HAL2    474   POPC   H16S   4404       0.09      1.008
 17371       CTL2    474   POPC   C217   4405      -0.18     12.011
 17372       HAL2    474   POPC   H17R   4405       0.09      1.008
 17373       HAL2    474   POPC   H17S   4405       0.09      1.008
 17374       CTL3    474   POPC   C218   4406      -0.27     12.011
 17375       HAL3    474   POPC   H18R   4406       0.09      1.008
 17376       HAL3    474   POPC   H18S   4406       0.09      1.008
 17377       HAL3    474   POPC   H18T   4406       0.09      1.008
 17378       CTL2    474   POPC    C33   4407      -0.18     12.011
 17379       HAL2    474   POPC    H3X   4407       0.09      1.008
 17380       HAL2    474   POPC    H3Y   4407       0.09      1.008
 17381       CTL2    474   POPC    C34   4408      -0.18     12.011
 17382       HAL2    474   POPC    H4X   4408       0.09      1.008
 17383       HAL2    474   POPC    H4Y   4408       0.09      1.008
 17384       CTL2    474   POPC    C35   4409      -0.18     12.011
 17385       HAL2    474   POPC    H5X   4409       0.09      1.008
 17386       HAL2    474   POPC    H5Y   4409       0.09      1.008
 17387       CTL2    474   POPC    C36   4410      -0.18     12.011
 17388       HAL2    474   POPC    H6X   4410       0.09      1.008
 17389       HAL2    474   POPC    H6Y   4410       0.09      1.008
 17390       CTL2    474   POPC    C37   4411      -0.18     12.011
 17391       HAL2    474   POPC    H7X   4411       0.09      1.008
 17392       HAL2    474   POPC    H7Y   4411       0.09      1.008
 17393       CTL2    474   POPC    C38   4412      -0.18     12.011
 17394       HAL2    474   POPC    H8X   4412       0.09      1.008
 17395       HAL2    474   POPC    H8Y   4412       0.09      1.008
 17396       CTL2    474   POPC    C39   4413      -0.18     12.011
 17397       HAL2    474   POPC    H9X   4413       0.09      1.008
 17398       HAL2    474   POPC    H9Y   4413       0.09      1.008
 17399       CTL2    474   POPC   C310   4414      -0.18     12.011
 17400       HAL2    474   POPC   H10X   4414       0.09      1.008
 17401       HAL2    474   POPC   H10Y   4414       0.09      1.008
 17402       CTL2    474   POPC   C311   4415      -0.18     12.011
 17403       HAL2    474   POPC   H11X   4415       0.09      1.008
 17404       HAL2    474   POPC   H11Y   4415       0.09      1.008
 17405       CTL2    474   POPC   C312   4416      -0.18     12.011
 17406       HAL2    474   POPC   H12X   4416       0.09      1.008
 17407       HAL2    474   POPC   H12Y   4416       0.09      1.008
 17408       CTL2    474   POPC   C313   4417      -0.18     12.011
 17409       HAL2    474   POPC   H13X   4417       0.09      1.008
 17410       HAL2    474   POPC   H13Y   4417       0.09      1.008
 17411       CTL2    474   POPC   C314   4418      -0.18     12.011
 17412       HAL2    474   POPC   H14X   4418       0.09      1.008
 17413       HAL2    474   POPC   H14Y   4418       0.09      1.008
 17414       CTL2    474   POPC   C315   4419      -0.18     12.011
 17415       HAL2    474   POPC   H15X   4419       0.09      1.008
 17416       HAL2    474   POPC   H15Y   4419       0.09      1.008
 17417       CTL3    474   POPC   C316   4420      -0.27     12.011
 17418       HAL3    474   POPC   H16X   4420       0.09      1.008
 17419       HAL3    474   POPC   H16Y   4420       0.09      1.008
 17420       HAL3    474   POPC   H16Z   4420       0.09      1.008   ; qtot 0
; residue 475 POPC rtp POPC q  0.0
 17421        NTL    475   POPC      N   4421       -0.6     14.007
 17422       CTL2    475   POPC    C12   4421       -0.1     12.011
 17423         HL    475   POPC   H12A   4421       0.25      1.008
 17424         HL    475   POPC   H12B   4421       0.25      1.008
 17425       CTL5    475   POPC    C13   4421      -0.35     12.011
 17426         HL    475   POPC   H13A   4421       0.25      1.008
 17427         HL    475   POPC   H13B   4421       0.25      1.008
 17428         HL    475   POPC   H13C   4421       0.25      1.008
 17429       CTL5    475   POPC    C14   4421      -0.35     12.011
 17430         HL    475   POPC   H14A   4421       0.25      1.008
 17431         HL    475   POPC   H14B   4421       0.25      1.008
 17432         HL    475   POPC   H14C   4421       0.25      1.008
 17433       CTL5    475   POPC    C15   4421      -0.35     12.011
 17434         HL    475   POPC   H15A   4421       0.25      1.008
 17435         HL    475   POPC   H15B   4421       0.25      1.008
 17436         HL    475   POPC   H15C   4421       0.25      1.008
 17437       CTL2    475   POPC    C11   4422      -0.08     12.011
 17438       HAL2    475   POPC   H11A   4422       0.09      1.008
 17439       HAL2    475   POPC   H11B   4422       0.09      1.008
 17440         PL    475   POPC      P   4422        1.5     30.974
 17441        O2L    475   POPC    O13   4422      -0.78    15.9994
 17442        O2L    475   POPC    O14   4422      -0.78    15.9994
 17443       OSLP    475   POPC    O12   4422      -0.57    15.9994
 17444       OSLP    475   POPC    O11   4422      -0.57    15.9994
 17445       CTL2    475   POPC     C1   4422      -0.08     12.011
 17446       HAL2    475   POPC     HA   4422       0.09      1.008
 17447       HAL2    475   POPC     HB   4422       0.09      1.008
 17448       CTL1    475   POPC     C2   4423       0.17     12.011
 17449       HAL1    475   POPC     HS   4423       0.09      1.008
 17450        OSL    475   POPC    O21   4423      -0.49    15.9994
 17451         CL    475   POPC    C21   4423        0.9     12.011
 17452        OBL    475   POPC    O22   4423      -0.63    15.9994
 17453       CTL2    475   POPC    C22   4423      -0.22     12.011
 17454       HAL2    475   POPC    H2R   4423       0.09      1.008
 17455       HAL2    475   POPC    H2S   4423       0.09      1.008
 17456       CTL2    475   POPC     C3   4424       0.08     12.011
 17457       HAL2    475   POPC     HX   4424       0.09      1.008
 17458       HAL2    475   POPC     HY   4424       0.09      1.008
 17459        OSL    475   POPC    O31   4424      -0.49    15.9994
 17460         CL    475   POPC    C31   4424        0.9     12.011
 17461        OBL    475   POPC    O32   4424      -0.63    15.9994
 17462       CTL2    475   POPC    C32   4424      -0.22     12.011
 17463       HAL2    475   POPC    H2X   4424       0.09      1.008
 17464       HAL2    475   POPC    H2Y   4424       0.09      1.008
 17465       CTL2    475   POPC    C23   4425      -0.18     12.011
 17466       HAL2    475   POPC    H3R   4425       0.09      1.008
 17467       HAL2    475   POPC    H3S   4425       0.09      1.008
 17468       CTL2    475   POPC    C24   4426      -0.18     12.011
 17469       HAL2    475   POPC    H4R   4426       0.09      1.008
 17470       HAL2    475   POPC    H4S   4426       0.09      1.008
 17471       CTL2    475   POPC    C25   4427      -0.18     12.011
 17472       HAL2    475   POPC    H5R   4427       0.09      1.008
 17473       HAL2    475   POPC    H5S   4427       0.09      1.008
 17474       CTL2    475   POPC    C26   4428      -0.18     12.011
 17475       HAL2    475   POPC    H6R   4428       0.09      1.008
 17476       HAL2    475   POPC    H6S   4428       0.09      1.008
 17477       CTL2    475   POPC    C27   4429      -0.18     12.011
 17478       HAL2    475   POPC    H7R   4429       0.09      1.008
 17479       HAL2    475   POPC    H7S   4429       0.09      1.008
 17480       CTL2    475   POPC    C28   4430      -0.18     12.011
 17481       HAL2    475   POPC    H8R   4430       0.09      1.008
 17482       HAL2    475   POPC    H8S   4430       0.09      1.008
 17483       CEL1    475   POPC    C29   4431      -0.15     12.011
 17484       HEL1    475   POPC    H91   4431       0.15      1.008
 17485       CEL1    475   POPC   C210   4432      -0.15     12.011
 17486       HEL1    475   POPC   H101   4432       0.15      1.008
 17487       CTL2    475   POPC   C211   4433      -0.18     12.011
 17488       HAL2    475   POPC   H11R   4433       0.09      1.008
 17489       HAL2    475   POPC   H11S   4433       0.09      1.008
 17490       CTL2    475   POPC   C212   4434      -0.18     12.011
 17491       HAL2    475   POPC   H12R   4434       0.09      1.008
 17492       HAL2    475   POPC   H12S   4434       0.09      1.008
 17493       CTL2    475   POPC   C213   4435      -0.18     12.011
 17494       HAL2    475   POPC   H13R   4435       0.09      1.008
 17495       HAL2    475   POPC   H13S   4435       0.09      1.008
 17496       CTL2    475   POPC   C214   4436      -0.18     12.011
 17497       HAL2    475   POPC   H14R   4436       0.09      1.008
 17498       HAL2    475   POPC   H14S   4436       0.09      1.008
 17499       CTL2    475   POPC   C215   4437      -0.18     12.011
 17500       HAL2    475   POPC   H15R   4437       0.09      1.008
 17501       HAL2    475   POPC   H15S   4437       0.09      1.008
 17502       CTL2    475   POPC   C216   4438      -0.18     12.011
 17503       HAL2    475   POPC   H16R   4438       0.09      1.008
 17504       HAL2    475   POPC   H16S   4438       0.09      1.008
 17505       CTL2    475   POPC   C217   4439      -0.18     12.011
 17506       HAL2    475   POPC   H17R   4439       0.09      1.008
 17507       HAL2    475   POPC   H17S   4439       0.09      1.008
 17508       CTL3    475   POPC   C218   4440      -0.27     12.011
 17509       HAL3    475   POPC   H18R   4440       0.09      1.008
 17510       HAL3    475   POPC   H18S   4440       0.09      1.008
 17511       HAL3    475   POPC   H18T   4440       0.09      1.008
 17512       CTL2    475   POPC    C33   4441      -0.18     12.011
 17513       HAL2    475   POPC    H3X   4441       0.09      1.008
 17514       HAL2    475   POPC    H3Y   4441       0.09      1.008
 17515       CTL2    475   POPC    C34   4442      -0.18     12.011
 17516       HAL2    475   POPC    H4X   4442       0.09      1.008
 17517       HAL2    475   POPC    H4Y   4442       0.09      1.008
 17518       CTL2    475   POPC    C35   4443      -0.18     12.011
 17519       HAL2    475   POPC    H5X   4443       0.09      1.008
 17520       HAL2    475   POPC    H5Y   4443       0.09      1.008
 17521       CTL2    475   POPC    C36   4444      -0.18     12.011
 17522       HAL2    475   POPC    H6X   4444       0.09      1.008
 17523       HAL2    475   POPC    H6Y   4444       0.09      1.008
 17524       CTL2    475   POPC    C37   4445      -0.18     12.011
 17525       HAL2    475   POPC    H7X   4445       0.09      1.008
 17526       HAL2    475   POPC    H7Y   4445       0.09      1.008
 17527       CTL2    475   POPC    C38   4446      -0.18     12.011
 17528       HAL2    475   POPC    H8X   4446       0.09      1.008
 17529       HAL2    475   POPC    H8Y   4446       0.09      1.008
 17530       CTL2    475   POPC    C39   4447      -0.18     12.011
 17531       HAL2    475   POPC    H9X   4447       0.09      1.008
 17532       HAL2    475   POPC    H9Y   4447       0.09      1.008
 17533       CTL2    475   POPC   C310   4448      -0.18     12.011
 17534       HAL2    475   POPC   H10X   4448       0.09      1.008
 17535       HAL2    475   POPC   H10Y   4448       0.09      1.008
 17536       CTL2    475   POPC   C311   4449      -0.18     12.011
 17537       HAL2    475   POPC   H11X   4449       0.09      1.008
 17538       HAL2    475   POPC   H11Y   4449       0.09      1.008
 17539       CTL2    475   POPC   C312   4450      -0.18     12.011
 17540       HAL2    475   POPC   H12X   4450       0.09      1.008
 17541       HAL2    475   POPC   H12Y   4450       0.09      1.008
 17542       CTL2    475   POPC   C313   4451      -0.18     12.011
 17543       HAL2    475   POPC   H13X   4451       0.09      1.008
 17544       HAL2    475   POPC   H13Y   4451       0.09      1.008
 17545       CTL2    475   POPC   C314   4452      -0.18     12.011
 17546       HAL2    475   POPC   H14X   4452       0.09      1.008
 17547       HAL2    475   POPC   H14Y   4452       0.09      1.008
 17548       CTL2    475   POPC   C315   4453      -0.18     12.011
 17549       HAL2    475   POPC   H15X   4453       0.09      1.008
 17550       HAL2    475   POPC   H15Y   4453       0.09      1.008
 17551       CTL3    475   POPC   C316   4454      -0.27     12.011
 17552       HAL3    475   POPC   H16X   4454       0.09      1.008
 17553       HAL3    475   POPC   H16Y   4454       0.09      1.008
 17554       HAL3    475   POPC   H16Z   4454       0.09      1.008   ; qtot 0
; residue 476 POPC rtp POPC q  0.0
 17555        NTL    476   POPC      N   4455       -0.6     14.007
 17556       CTL2    476   POPC    C12   4455       -0.1     12.011
 17557         HL    476   POPC   H12A   4455       0.25      1.008
 17558         HL    476   POPC   H12B   4455       0.25      1.008
 17559       CTL5    476   POPC    C13   4455      -0.35     12.011
 17560         HL    476   POPC   H13A   4455       0.25      1.008
 17561         HL    476   POPC   H13B   4455       0.25      1.008
 17562         HL    476   POPC   H13C   4455       0.25      1.008
 17563       CTL5    476   POPC    C14   4455      -0.35     12.011
 17564         HL    476   POPC   H14A   4455       0.25      1.008
 17565         HL    476   POPC   H14B   4455       0.25      1.008
 17566         HL    476   POPC   H14C   4455       0.25      1.008
 17567       CTL5    476   POPC    C15   4455      -0.35     12.011
 17568         HL    476   POPC   H15A   4455       0.25      1.008
 17569         HL    476   POPC   H15B   4455       0.25      1.008
 17570         HL    476   POPC   H15C   4455       0.25      1.008
 17571       CTL2    476   POPC    C11   4456      -0.08     12.011
 17572       HAL2    476   POPC   H11A   4456       0.09      1.008
 17573       HAL2    476   POPC   H11B   4456       0.09      1.008
 17574         PL    476   POPC      P   4456        1.5     30.974
 17575        O2L    476   POPC    O13   4456      -0.78    15.9994
 17576        O2L    476   POPC    O14   4456      -0.78    15.9994
 17577       OSLP    476   POPC    O12   4456      -0.57    15.9994
 17578       OSLP    476   POPC    O11   4456      -0.57    15.9994
 17579       CTL2    476   POPC     C1   4456      -0.08     12.011
 17580       HAL2    476   POPC     HA   4456       0.09      1.008
 17581       HAL2    476   POPC     HB   4456       0.09      1.008
 17582       CTL1    476   POPC     C2   4457       0.17     12.011
 17583       HAL1    476   POPC     HS   4457       0.09      1.008
 17584        OSL    476   POPC    O21   4457      -0.49    15.9994
 17585         CL    476   POPC    C21   4457        0.9     12.011
 17586        OBL    476   POPC    O22   4457      -0.63    15.9994
 17587       CTL2    476   POPC    C22   4457      -0.22     12.011
 17588       HAL2    476   POPC    H2R   4457       0.09      1.008
 17589       HAL2    476   POPC    H2S   4457       0.09      1.008
 17590       CTL2    476   POPC     C3   4458       0.08     12.011
 17591       HAL2    476   POPC     HX   4458       0.09      1.008
 17592       HAL2    476   POPC     HY   4458       0.09      1.008
 17593        OSL    476   POPC    O31   4458      -0.49    15.9994
 17594         CL    476   POPC    C31   4458        0.9     12.011
 17595        OBL    476   POPC    O32   4458      -0.63    15.9994
 17596       CTL2    476   POPC    C32   4458      -0.22     12.011
 17597       HAL2    476   POPC    H2X   4458       0.09      1.008
 17598       HAL2    476   POPC    H2Y   4458       0.09      1.008
 17599       CTL2    476   POPC    C23   4459      -0.18     12.011
 17600       HAL2    476   POPC    H3R   4459       0.09      1.008
 17601       HAL2    476   POPC    H3S   4459       0.09      1.008
 17602       CTL2    476   POPC    C24   4460      -0.18     12.011
 17603       HAL2    476   POPC    H4R   4460       0.09      1.008
 17604       HAL2    476   POPC    H4S   4460       0.09      1.008
 17605       CTL2    476   POPC    C25   4461      -0.18     12.011
 17606       HAL2    476   POPC    H5R   4461       0.09      1.008
 17607       HAL2    476   POPC    H5S   4461       0.09      1.008
 17608       CTL2    476   POPC    C26   4462      -0.18     12.011
 17609       HAL2    476   POPC    H6R   4462       0.09      1.008
 17610       HAL2    476   POPC    H6S   4462       0.09      1.008
 17611       CTL2    476   POPC    C27   4463      -0.18     12.011
 17612       HAL2    476   POPC    H7R   4463       0.09      1.008
 17613       HAL2    476   POPC    H7S   4463       0.09      1.008
 17614       CTL2    476   POPC    C28   4464      -0.18     12.011
 17615       HAL2    476   POPC    H8R   4464       0.09      1.008
 17616       HAL2    476   POPC    H8S   4464       0.09      1.008
 17617       CEL1    476   POPC    C29   4465      -0.15     12.011
 17618       HEL1    476   POPC    H91   4465       0.15      1.008
 17619       CEL1    476   POPC   C210   4466      -0.15     12.011
 17620       HEL1    476   POPC   H101   4466       0.15      1.008
 17621       CTL2    476   POPC   C211   4467      -0.18     12.011
 17622       HAL2    476   POPC   H11R   4467       0.09      1.008
 17623       HAL2    476   POPC   H11S   4467       0.09      1.008
 17624       CTL2    476   POPC   C212   4468      -0.18     12.011
 17625       HAL2    476   POPC   H12R   4468       0.09      1.008
 17626       HAL2    476   POPC   H12S   4468       0.09      1.008
 17627       CTL2    476   POPC   C213   4469      -0.18     12.011
 17628       HAL2    476   POPC   H13R   4469       0.09      1.008
 17629       HAL2    476   POPC   H13S   4469       0.09      1.008
 17630       CTL2    476   POPC   C214   4470      -0.18     12.011
 17631       HAL2    476   POPC   H14R   4470       0.09      1.008
 17632       HAL2    476   POPC   H14S   4470       0.09      1.008
 17633       CTL2    476   POPC   C215   4471      -0.18     12.011
 17634       HAL2    476   POPC   H15R   4471       0.09      1.008
 17635       HAL2    476   POPC   H15S   4471       0.09      1.008
 17636       CTL2    476   POPC   C216   4472      -0.18     12.011
 17637       HAL2    476   POPC   H16R   4472       0.09      1.008
 17638       HAL2    476   POPC   H16S   4472       0.09      1.008
 17639       CTL2    476   POPC   C217   4473      -0.18     12.011
 17640       HAL2    476   POPC   H17R   4473       0.09      1.008
 17641       HAL2    476   POPC   H17S   4473       0.09      1.008
 17642       CTL3    476   POPC   C218   4474      -0.27     12.011
 17643       HAL3    476   POPC   H18R   4474       0.09      1.008
 17644       HAL3    476   POPC   H18S   4474       0.09      1.008
 17645       HAL3    476   POPC   H18T   4474       0.09      1.008
 17646       CTL2    476   POPC    C33   4475      -0.18     12.011
 17647       HAL2    476   POPC    H3X   4475       0.09      1.008
 17648       HAL2    476   POPC    H3Y   4475       0.09      1.008
 17649       CTL2    476   POPC    C34   4476      -0.18     12.011
 17650       HAL2    476   POPC    H4X   4476       0.09      1.008
 17651       HAL2    476   POPC    H4Y   4476       0.09      1.008
 17652       CTL2    476   POPC    C35   4477      -0.18     12.011
 17653       HAL2    476   POPC    H5X   4477       0.09      1.008
 17654       HAL2    476   POPC    H5Y   4477       0.09      1.008
 17655       CTL2    476   POPC    C36   4478      -0.18     12.011
 17656       HAL2    476   POPC    H6X   4478       0.09      1.008
 17657       HAL2    476   POPC    H6Y   4478       0.09      1.008
 17658       CTL2    476   POPC    C37   4479      -0.18     12.011
 17659       HAL2    476   POPC    H7X   4479       0.09      1.008
 17660       HAL2    476   POPC    H7Y   4479       0.09      1.008
 17661       CTL2    476   POPC    C38   4480      -0.18     12.011
 17662       HAL2    476   POPC    H8X   4480       0.09      1.008
 17663       HAL2    476   POPC    H8Y   4480       0.09      1.008
 17664       CTL2    476   POPC    C39   4481      -0.18     12.011
 17665       HAL2    476   POPC    H9X   4481       0.09      1.008
 17666       HAL2    476   POPC    H9Y   4481       0.09      1.008
 17667       CTL2    476   POPC   C310   4482      -0.18     12.011
 17668       HAL2    476   POPC   H10X   4482       0.09      1.008
 17669       HAL2    476   POPC   H10Y   4482       0.09      1.008
 17670       CTL2    476   POPC   C311   4483      -0.18     12.011
 17671       HAL2    476   POPC   H11X   4483       0.09      1.008
 17672       HAL2    476   POPC   H11Y   4483       0.09      1.008
 17673       CTL2    476   POPC   C312   4484      -0.18     12.011
 17674       HAL2    476   POPC   H12X   4484       0.09      1.008
 17675       HAL2    476   POPC   H12Y   4484       0.09      1.008
 17676       CTL2    476   POPC   C313   4485      -0.18     12.011
 17677       HAL2    476   POPC   H13X   4485       0.09      1.008
 17678       HAL2    476   POPC   H13Y   4485       0.09      1.008
 17679       CTL2    476   POPC   C314   4486      -0.18     12.011
 17680       HAL2    476   POPC   H14X   4486       0.09      1.008
 17681       HAL2    476   POPC   H14Y   4486       0.09      1.008
 17682       CTL2    476   POPC   C315   4487      -0.18     12.011
 17683       HAL2    476   POPC   H15X   4487       0.09      1.008
 17684       HAL2    476   POPC   H15Y   4487       0.09      1.008
 17685       CTL3    476   POPC   C316   4488      -0.27     12.011
 17686       HAL3    476   POPC   H16X   4488       0.09      1.008
 17687       HAL3    476   POPC   H16Y   4488       0.09      1.008
 17688       HAL3    476   POPC   H16Z   4488       0.09      1.008   ; qtot 0
; residue 477 POPC rtp POPC q  0.0
 17689        NTL    477   POPC      N   4489       -0.6     14.007
 17690       CTL2    477   POPC    C12   4489       -0.1     12.011
 17691         HL    477   POPC   H12A   4489       0.25      1.008
 17692         HL    477   POPC   H12B   4489       0.25      1.008
 17693       CTL5    477   POPC    C13   4489      -0.35     12.011
 17694         HL    477   POPC   H13A   4489       0.25      1.008
 17695         HL    477   POPC   H13B   4489       0.25      1.008
 17696         HL    477   POPC   H13C   4489       0.25      1.008
 17697       CTL5    477   POPC    C14   4489      -0.35     12.011
 17698         HL    477   POPC   H14A   4489       0.25      1.008
 17699         HL    477   POPC   H14B   4489       0.25      1.008
 17700         HL    477   POPC   H14C   4489       0.25      1.008
 17701       CTL5    477   POPC    C15   4489      -0.35     12.011
 17702         HL    477   POPC   H15A   4489       0.25      1.008
 17703         HL    477   POPC   H15B   4489       0.25      1.008
 17704         HL    477   POPC   H15C   4489       0.25      1.008
 17705       CTL2    477   POPC    C11   4490      -0.08     12.011
 17706       HAL2    477   POPC   H11A   4490       0.09      1.008
 17707       HAL2    477   POPC   H11B   4490       0.09      1.008
 17708         PL    477   POPC      P   4490        1.5     30.974
 17709        O2L    477   POPC    O13   4490      -0.78    15.9994
 17710        O2L    477   POPC    O14   4490      -0.78    15.9994
 17711       OSLP    477   POPC    O12   4490      -0.57    15.9994
 17712       OSLP    477   POPC    O11   4490      -0.57    15.9994
 17713       CTL2    477   POPC     C1   4490      -0.08     12.011
 17714       HAL2    477   POPC     HA   4490       0.09      1.008
 17715       HAL2    477   POPC     HB   4490       0.09      1.008
 17716       CTL1    477   POPC     C2   4491       0.17     12.011
 17717       HAL1    477   POPC     HS   4491       0.09      1.008
 17718        OSL    477   POPC    O21   4491      -0.49    15.9994
 17719         CL    477   POPC    C21   4491        0.9     12.011
 17720        OBL    477   POPC    O22   4491      -0.63    15.9994
 17721       CTL2    477   POPC    C22   4491      -0.22     12.011
 17722       HAL2    477   POPC    H2R   4491       0.09      1.008
 17723       HAL2    477   POPC    H2S   4491       0.09      1.008
 17724       CTL2    477   POPC     C3   4492       0.08     12.011
 17725       HAL2    477   POPC     HX   4492       0.09      1.008
 17726       HAL2    477   POPC     HY   4492       0.09      1.008
 17727        OSL    477   POPC    O31   4492      -0.49    15.9994
 17728         CL    477   POPC    C31   4492        0.9     12.011
 17729        OBL    477   POPC    O32   4492      -0.63    15.9994
 17730       CTL2    477   POPC    C32   4492      -0.22     12.011
 17731       HAL2    477   POPC    H2X   4492       0.09      1.008
 17732       HAL2    477   POPC    H2Y   4492       0.09      1.008
 17733       CTL2    477   POPC    C23   4493      -0.18     12.011
 17734       HAL2    477   POPC    H3R   4493       0.09      1.008
 17735       HAL2    477   POPC    H3S   4493       0.09      1.008
 17736       CTL2    477   POPC    C24   4494      -0.18     12.011
 17737       HAL2    477   POPC    H4R   4494       0.09      1.008
 17738       HAL2    477   POPC    H4S   4494       0.09      1.008
 17739       CTL2    477   POPC    C25   4495      -0.18     12.011
 17740       HAL2    477   POPC    H5R   4495       0.09      1.008
 17741       HAL2    477   POPC    H5S   4495       0.09      1.008
 17742       CTL2    477   POPC    C26   4496      -0.18     12.011
 17743       HAL2    477   POPC    H6R   4496       0.09      1.008
 17744       HAL2    477   POPC    H6S   4496       0.09      1.008
 17745       CTL2    477   POPC    C27   4497      -0.18     12.011
 17746       HAL2    477   POPC    H7R   4497       0.09      1.008
 17747       HAL2    477   POPC    H7S   4497       0.09      1.008
 17748       CTL2    477   POPC    C28   4498      -0.18     12.011
 17749       HAL2    477   POPC    H8R   4498       0.09      1.008
 17750       HAL2    477   POPC    H8S   4498       0.09      1.008
 17751       CEL1    477   POPC    C29   4499      -0.15     12.011
 17752       HEL1    477   POPC    H91   4499       0.15      1.008
 17753       CEL1    477   POPC   C210   4500      -0.15     12.011
 17754       HEL1    477   POPC   H101   4500       0.15      1.008
 17755       CTL2    477   POPC   C211   4501      -0.18     12.011
 17756       HAL2    477   POPC   H11R   4501       0.09      1.008
 17757       HAL2    477   POPC   H11S   4501       0.09      1.008
 17758       CTL2    477   POPC   C212   4502      -0.18     12.011
 17759       HAL2    477   POPC   H12R   4502       0.09      1.008
 17760       HAL2    477   POPC   H12S   4502       0.09      1.008
 17761       CTL2    477   POPC   C213   4503      -0.18     12.011
 17762       HAL2    477   POPC   H13R   4503       0.09      1.008
 17763       HAL2    477   POPC   H13S   4503       0.09      1.008
 17764       CTL2    477   POPC   C214   4504      -0.18     12.011
 17765       HAL2    477   POPC   H14R   4504       0.09      1.008
 17766       HAL2    477   POPC   H14S   4504       0.09      1.008
 17767       CTL2    477   POPC   C215   4505      -0.18     12.011
 17768       HAL2    477   POPC   H15R   4505       0.09      1.008
 17769       HAL2    477   POPC   H15S   4505       0.09      1.008
 17770       CTL2    477   POPC   C216   4506      -0.18     12.011
 17771       HAL2    477   POPC   H16R   4506       0.09      1.008
 17772       HAL2    477   POPC   H16S   4506       0.09      1.008
 17773       CTL2    477   POPC   C217   4507      -0.18     12.011
 17774       HAL2    477   POPC   H17R   4507       0.09      1.008
 17775       HAL2    477   POPC   H17S   4507       0.09      1.008
 17776       CTL3    477   POPC   C218   4508      -0.27     12.011
 17777       HAL3    477   POPC   H18R   4508       0.09      1.008
 17778       HAL3    477   POPC   H18S   4508       0.09      1.008
 17779       HAL3    477   POPC   H18T   4508       0.09      1.008
 17780       CTL2    477   POPC    C33   4509      -0.18     12.011
 17781       HAL2    477   POPC    H3X   4509       0.09      1.008
 17782       HAL2    477   POPC    H3Y   4509       0.09      1.008
 17783       CTL2    477   POPC    C34   4510      -0.18     12.011
 17784       HAL2    477   POPC    H4X   4510       0.09      1.008
 17785       HAL2    477   POPC    H4Y   4510       0.09      1.008
 17786       CTL2    477   POPC    C35   4511      -0.18     12.011
 17787       HAL2    477   POPC    H5X   4511       0.09      1.008
 17788       HAL2    477   POPC    H5Y   4511       0.09      1.008
 17789       CTL2    477   POPC    C36   4512      -0.18     12.011
 17790       HAL2    477   POPC    H6X   4512       0.09      1.008
 17791       HAL2    477   POPC    H6Y   4512       0.09      1.008
 17792       CTL2    477   POPC    C37   4513      -0.18     12.011
 17793       HAL2    477   POPC    H7X   4513       0.09      1.008
 17794       HAL2    477   POPC    H7Y   4513       0.09      1.008
 17795       CTL2    477   POPC    C38   4514      -0.18     12.011
 17796       HAL2    477   POPC    H8X   4514       0.09      1.008
 17797       HAL2    477   POPC    H8Y   4514       0.09      1.008
 17798       CTL2    477   POPC    C39   4515      -0.18     12.011
 17799       HAL2    477   POPC    H9X   4515       0.09      1.008
 17800       HAL2    477   POPC    H9Y   4515       0.09      1.008
 17801       CTL2    477   POPC   C310   4516      -0.18     12.011
 17802       HAL2    477   POPC   H10X   4516       0.09      1.008
 17803       HAL2    477   POPC   H10Y   4516       0.09      1.008
 17804       CTL2    477   POPC   C311   4517      -0.18     12.011
 17805       HAL2    477   POPC   H11X   4517       0.09      1.008
 17806       HAL2    477   POPC   H11Y   4517       0.09      1.008
 17807       CTL2    477   POPC   C312   4518      -0.18     12.011
 17808       HAL2    477   POPC   H12X   4518       0.09      1.008
 17809       HAL2    477   POPC   H12Y   4518       0.09      1.008
 17810       CTL2    477   POPC   C313   4519      -0.18     12.011
 17811       HAL2    477   POPC   H13X   4519       0.09      1.008
 17812       HAL2    477   POPC   H13Y   4519       0.09      1.008
 17813       CTL2    477   POPC   C314   4520      -0.18     12.011
 17814       HAL2    477   POPC   H14X   4520       0.09      1.008
 17815       HAL2    477   POPC   H14Y   4520       0.09      1.008
 17816       CTL2    477   POPC   C315   4521      -0.18     12.011
 17817       HAL2    477   POPC   H15X   4521       0.09      1.008
 17818       HAL2    477   POPC   H15Y   4521       0.09      1.008
 17819       CTL3    477   POPC   C316   4522      -0.27     12.011
 17820       HAL3    477   POPC   H16X   4522       0.09      1.008
 17821       HAL3    477   POPC   H16Y   4522       0.09      1.008
 17822       HAL3    477   POPC   H16Z   4522       0.09      1.008   ; qtot 0
; residue 478 POPC rtp POPC q  0.0
 17823        NTL    478   POPC      N   4523       -0.6     14.007
 17824       CTL2    478   POPC    C12   4523       -0.1     12.011
 17825         HL    478   POPC   H12A   4523       0.25      1.008
 17826         HL    478   POPC   H12B   4523       0.25      1.008
 17827       CTL5    478   POPC    C13   4523      -0.35     12.011
 17828         HL    478   POPC   H13A   4523       0.25      1.008
 17829         HL    478   POPC   H13B   4523       0.25      1.008
 17830         HL    478   POPC   H13C   4523       0.25      1.008
 17831       CTL5    478   POPC    C14   4523      -0.35     12.011
 17832         HL    478   POPC   H14A   4523       0.25      1.008
 17833         HL    478   POPC   H14B   4523       0.25      1.008
 17834         HL    478   POPC   H14C   4523       0.25      1.008
 17835       CTL5    478   POPC    C15   4523      -0.35     12.011
 17836         HL    478   POPC   H15A   4523       0.25      1.008
 17837         HL    478   POPC   H15B   4523       0.25      1.008
 17838         HL    478   POPC   H15C   4523       0.25      1.008
 17839       CTL2    478   POPC    C11   4524      -0.08     12.011
 17840       HAL2    478   POPC   H11A   4524       0.09      1.008
 17841       HAL2    478   POPC   H11B   4524       0.09      1.008
 17842         PL    478   POPC      P   4524        1.5     30.974
 17843        O2L    478   POPC    O13   4524      -0.78    15.9994
 17844        O2L    478   POPC    O14   4524      -0.78    15.9994
 17845       OSLP    478   POPC    O12   4524      -0.57    15.9994
 17846       OSLP    478   POPC    O11   4524      -0.57    15.9994
 17847       CTL2    478   POPC     C1   4524      -0.08     12.011
 17848       HAL2    478   POPC     HA   4524       0.09      1.008
 17849       HAL2    478   POPC     HB   4524       0.09      1.008
 17850       CTL1    478   POPC     C2   4525       0.17     12.011
 17851       HAL1    478   POPC     HS   4525       0.09      1.008
 17852        OSL    478   POPC    O21   4525      -0.49    15.9994
 17853         CL    478   POPC    C21   4525        0.9     12.011
 17854        OBL    478   POPC    O22   4525      -0.63    15.9994
 17855       CTL2    478   POPC    C22   4525      -0.22     12.011
 17856       HAL2    478   POPC    H2R   4525       0.09      1.008
 17857       HAL2    478   POPC    H2S   4525       0.09      1.008
 17858       CTL2    478   POPC     C3   4526       0.08     12.011
 17859       HAL2    478   POPC     HX   4526       0.09      1.008
 17860       HAL2    478   POPC     HY   4526       0.09      1.008
 17861        OSL    478   POPC    O31   4526      -0.49    15.9994
 17862         CL    478   POPC    C31   4526        0.9     12.011
 17863        OBL    478   POPC    O32   4526      -0.63    15.9994
 17864       CTL2    478   POPC    C32   4526      -0.22     12.011
 17865       HAL2    478   POPC    H2X   4526       0.09      1.008
 17866       HAL2    478   POPC    H2Y   4526       0.09      1.008
 17867       CTL2    478   POPC    C23   4527      -0.18     12.011
 17868       HAL2    478   POPC    H3R   4527       0.09      1.008
 17869       HAL2    478   POPC    H3S   4527       0.09      1.008
 17870       CTL2    478   POPC    C24   4528      -0.18     12.011
 17871       HAL2    478   POPC    H4R   4528       0.09      1.008
 17872       HAL2    478   POPC    H4S   4528       0.09      1.008
 17873       CTL2    478   POPC    C25   4529      -0.18     12.011
 17874       HAL2    478   POPC    H5R   4529       0.09      1.008
 17875       HAL2    478   POPC    H5S   4529       0.09      1.008
 17876       CTL2    478   POPC    C26   4530      -0.18     12.011
 17877       HAL2    478   POPC    H6R   4530       0.09      1.008
 17878       HAL2    478   POPC    H6S   4530       0.09      1.008
 17879       CTL2    478   POPC    C27   4531      -0.18     12.011
 17880       HAL2    478   POPC    H7R   4531       0.09      1.008
 17881       HAL2    478   POPC    H7S   4531       0.09      1.008
 17882       CTL2    478   POPC    C28   4532      -0.18     12.011
 17883       HAL2    478   POPC    H8R   4532       0.09      1.008
 17884       HAL2    478   POPC    H8S   4532       0.09      1.008
 17885       CEL1    478   POPC    C29   4533      -0.15     12.011
 17886       HEL1    478   POPC    H91   4533       0.15      1.008
 17887       CEL1    478   POPC   C210   4534      -0.15     12.011
 17888       HEL1    478   POPC   H101   4534       0.15      1.008
 17889       CTL2    478   POPC   C211   4535      -0.18     12.011
 17890       HAL2    478   POPC   H11R   4535       0.09      1.008
 17891       HAL2    478   POPC   H11S   4535       0.09      1.008
 17892       CTL2    478   POPC   C212   4536      -0.18     12.011
 17893       HAL2    478   POPC   H12R   4536       0.09      1.008
 17894       HAL2    478   POPC   H12S   4536       0.09      1.008
 17895       CTL2    478   POPC   C213   4537      -0.18     12.011
 17896       HAL2    478   POPC   H13R   4537       0.09      1.008
 17897       HAL2    478   POPC   H13S   4537       0.09      1.008
 17898       CTL2    478   POPC   C214   4538      -0.18     12.011
 17899       HAL2    478   POPC   H14R   4538       0.09      1.008
 17900       HAL2    478   POPC   H14S   4538       0.09      1.008
 17901       CTL2    478   POPC   C215   4539      -0.18     12.011
 17902       HAL2    478   POPC   H15R   4539       0.09      1.008
 17903       HAL2    478   POPC   H15S   4539       0.09      1.008
 17904       CTL2    478   POPC   C216   4540      -0.18     12.011
 17905       HAL2    478   POPC   H16R   4540       0.09      1.008
 17906       HAL2    478   POPC   H16S   4540       0.09      1.008
 17907       CTL2    478   POPC   C217   4541      -0.18     12.011
 17908       HAL2    478   POPC   H17R   4541       0.09      1.008
 17909       HAL2    478   POPC   H17S   4541       0.09      1.008
 17910       CTL3    478   POPC   C218   4542      -0.27     12.011
 17911       HAL3    478   POPC   H18R   4542       0.09      1.008
 17912       HAL3    478   POPC   H18S   4542       0.09      1.008
 17913       HAL3    478   POPC   H18T   4542       0.09      1.008
 17914       CTL2    478   POPC    C33   4543      -0.18     12.011
 17915       HAL2    478   POPC    H3X   4543       0.09      1.008
 17916       HAL2    478   POPC    H3Y   4543       0.09      1.008
 17917       CTL2    478   POPC    C34   4544      -0.18     12.011
 17918       HAL2    478   POPC    H4X   4544       0.09      1.008
 17919       HAL2    478   POPC    H4Y   4544       0.09      1.008
 17920       CTL2    478   POPC    C35   4545      -0.18     12.011
 17921       HAL2    478   POPC    H5X   4545       0.09      1.008
 17922       HAL2    478   POPC    H5Y   4545       0.09      1.008
 17923       CTL2    478   POPC    C36   4546      -0.18     12.011
 17924       HAL2    478   POPC    H6X   4546       0.09      1.008
 17925       HAL2    478   POPC    H6Y   4546       0.09      1.008
 17926       CTL2    478   POPC    C37   4547      -0.18     12.011
 17927       HAL2    478   POPC    H7X   4547       0.09      1.008
 17928       HAL2    478   POPC    H7Y   4547       0.09      1.008
 17929       CTL2    478   POPC    C38   4548      -0.18     12.011
 17930       HAL2    478   POPC    H8X   4548       0.09      1.008
 17931       HAL2    478   POPC    H8Y   4548       0.09      1.008
 17932       CTL2    478   POPC    C39   4549      -0.18     12.011
 17933       HAL2    478   POPC    H9X   4549       0.09      1.008
 17934       HAL2    478   POPC    H9Y   4549       0.09      1.008
 17935       CTL2    478   POPC   C310   4550      -0.18     12.011
 17936       HAL2    478   POPC   H10X   4550       0.09      1.008
 17937       HAL2    478   POPC   H10Y   4550       0.09      1.008
 17938       CTL2    478   POPC   C311   4551      -0.18     12.011
 17939       HAL2    478   POPC   H11X   4551       0.09      1.008
 17940       HAL2    478   POPC   H11Y   4551       0.09      1.008
 17941       CTL2    478   POPC   C312   4552      -0.18     12.011
 17942       HAL2    478   POPC   H12X   4552       0.09      1.008
 17943       HAL2    478   POPC   H12Y   4552       0.09      1.008
 17944       CTL2    478   POPC   C313   4553      -0.18     12.011
 17945       HAL2    478   POPC   H13X   4553       0.09      1.008
 17946       HAL2    478   POPC   H13Y   4553       0.09      1.008
 17947       CTL2    478   POPC   C314   4554      -0.18     12.011
 17948       HAL2    478   POPC   H14X   4554       0.09      1.008
 17949       HAL2    478   POPC   H14Y   4554       0.09      1.008
 17950       CTL2    478   POPC   C315   4555      -0.18     12.011
 17951       HAL2    478   POPC   H15X   4555       0.09      1.008
 17952       HAL2    478   POPC   H15Y   4555       0.09      1.008
 17953       CTL3    478   POPC   C316   4556      -0.27     12.011
 17954       HAL3    478   POPC   H16X   4556       0.09      1.008
 17955       HAL3    478   POPC   H16Y   4556       0.09      1.008
 17956       HAL3    478   POPC   H16Z   4556       0.09      1.008   ; qtot 0
; residue 479 POPC rtp POPC q  0.0
 17957        NTL    479   POPC      N   4557       -0.6     14.007
 17958       CTL2    479   POPC    C12   4557       -0.1     12.011
 17959         HL    479   POPC   H12A   4557       0.25      1.008
 17960         HL    479   POPC   H12B   4557       0.25      1.008
 17961       CTL5    479   POPC    C13   4557      -0.35     12.011
 17962         HL    479   POPC   H13A   4557       0.25      1.008
 17963         HL    479   POPC   H13B   4557       0.25      1.008
 17964         HL    479   POPC   H13C   4557       0.25      1.008
 17965       CTL5    479   POPC    C14   4557      -0.35     12.011
 17966         HL    479   POPC   H14A   4557       0.25      1.008
 17967         HL    479   POPC   H14B   4557       0.25      1.008
 17968         HL    479   POPC   H14C   4557       0.25      1.008
 17969       CTL5    479   POPC    C15   4557      -0.35     12.011
 17970         HL    479   POPC   H15A   4557       0.25      1.008
 17971         HL    479   POPC   H15B   4557       0.25      1.008
 17972         HL    479   POPC   H15C   4557       0.25      1.008
 17973       CTL2    479   POPC    C11   4558      -0.08     12.011
 17974       HAL2    479   POPC   H11A   4558       0.09      1.008
 17975       HAL2    479   POPC   H11B   4558       0.09      1.008
 17976         PL    479   POPC      P   4558        1.5     30.974
 17977        O2L    479   POPC    O13   4558      -0.78    15.9994
 17978        O2L    479   POPC    O14   4558      -0.78    15.9994
 17979       OSLP    479   POPC    O12   4558      -0.57    15.9994
 17980       OSLP    479   POPC    O11   4558      -0.57    15.9994
 17981       CTL2    479   POPC     C1   4558      -0.08     12.011
 17982       HAL2    479   POPC     HA   4558       0.09      1.008
 17983       HAL2    479   POPC     HB   4558       0.09      1.008
 17984       CTL1    479   POPC     C2   4559       0.17     12.011
 17985       HAL1    479   POPC     HS   4559       0.09      1.008
 17986        OSL    479   POPC    O21   4559      -0.49    15.9994
 17987         CL    479   POPC    C21   4559        0.9     12.011
 17988        OBL    479   POPC    O22   4559      -0.63    15.9994
 17989       CTL2    479   POPC    C22   4559      -0.22     12.011
 17990       HAL2    479   POPC    H2R   4559       0.09      1.008
 17991       HAL2    479   POPC    H2S   4559       0.09      1.008
 17992       CTL2    479   POPC     C3   4560       0.08     12.011
 17993       HAL2    479   POPC     HX   4560       0.09      1.008
 17994       HAL2    479   POPC     HY   4560       0.09      1.008
 17995        OSL    479   POPC    O31   4560      -0.49    15.9994
 17996         CL    479   POPC    C31   4560        0.9     12.011
 17997        OBL    479   POPC    O32   4560      -0.63    15.9994
 17998       CTL2    479   POPC    C32   4560      -0.22     12.011
 17999       HAL2    479   POPC    H2X   4560       0.09      1.008
 18000       HAL2    479   POPC    H2Y   4560       0.09      1.008
 18001       CTL2    479   POPC    C23   4561      -0.18     12.011
 18002       HAL2    479   POPC    H3R   4561       0.09      1.008
 18003       HAL2    479   POPC    H3S   4561       0.09      1.008
 18004       CTL2    479   POPC    C24   4562      -0.18     12.011
 18005       HAL2    479   POPC    H4R   4562       0.09      1.008
 18006       HAL2    479   POPC    H4S   4562       0.09      1.008
 18007       CTL2    479   POPC    C25   4563      -0.18     12.011
 18008       HAL2    479   POPC    H5R   4563       0.09      1.008
 18009       HAL2    479   POPC    H5S   4563       0.09      1.008
 18010       CTL2    479   POPC    C26   4564      -0.18     12.011
 18011       HAL2    479   POPC    H6R   4564       0.09      1.008
 18012       HAL2    479   POPC    H6S   4564       0.09      1.008
 18013       CTL2    479   POPC    C27   4565      -0.18     12.011
 18014       HAL2    479   POPC    H7R   4565       0.09      1.008
 18015       HAL2    479   POPC    H7S   4565       0.09      1.008
 18016       CTL2    479   POPC    C28   4566      -0.18     12.011
 18017       HAL2    479   POPC    H8R   4566       0.09      1.008
 18018       HAL2    479   POPC    H8S   4566       0.09      1.008
 18019       CEL1    479   POPC    C29   4567      -0.15     12.011
 18020       HEL1    479   POPC    H91   4567       0.15      1.008
 18021       CEL1    479   POPC   C210   4568      -0.15     12.011
 18022       HEL1    479   POPC   H101   4568       0.15      1.008
 18023       CTL2    479   POPC   C211   4569      -0.18     12.011
 18024       HAL2    479   POPC   H11R   4569       0.09      1.008
 18025       HAL2    479   POPC   H11S   4569       0.09      1.008
 18026       CTL2    479   POPC   C212   4570      -0.18     12.011
 18027       HAL2    479   POPC   H12R   4570       0.09      1.008
 18028       HAL2    479   POPC   H12S   4570       0.09      1.008
 18029       CTL2    479   POPC   C213   4571      -0.18     12.011
 18030       HAL2    479   POPC   H13R   4571       0.09      1.008
 18031       HAL2    479   POPC   H13S   4571       0.09      1.008
 18032       CTL2    479   POPC   C214   4572      -0.18     12.011
 18033       HAL2    479   POPC   H14R   4572       0.09      1.008
 18034       HAL2    479   POPC   H14S   4572       0.09      1.008
 18035       CTL2    479   POPC   C215   4573      -0.18     12.011
 18036       HAL2    479   POPC   H15R   4573       0.09      1.008
 18037       HAL2    479   POPC   H15S   4573       0.09      1.008
 18038       CTL2    479   POPC   C216   4574      -0.18     12.011
 18039       HAL2    479   POPC   H16R   4574       0.09      1.008
 18040       HAL2    479   POPC   H16S   4574       0.09      1.008
 18041       CTL2    479   POPC   C217   4575      -0.18     12.011
 18042       HAL2    479   POPC   H17R   4575       0.09      1.008
 18043       HAL2    479   POPC   H17S   4575       0.09      1.008
 18044       CTL3    479   POPC   C218   4576      -0.27     12.011
 18045       HAL3    479   POPC   H18R   4576       0.09      1.008
 18046       HAL3    479   POPC   H18S   4576       0.09      1.008
 18047       HAL3    479   POPC   H18T   4576       0.09      1.008
 18048       CTL2    479   POPC    C33   4577      -0.18     12.011
 18049       HAL2    479   POPC    H3X   4577       0.09      1.008
 18050       HAL2    479   POPC    H3Y   4577       0.09      1.008
 18051       CTL2    479   POPC    C34   4578      -0.18     12.011
 18052       HAL2    479   POPC    H4X   4578       0.09      1.008
 18053       HAL2    479   POPC    H4Y   4578       0.09      1.008
 18054       CTL2    479   POPC    C35   4579      -0.18     12.011
 18055       HAL2    479   POPC    H5X   4579       0.09      1.008
 18056       HAL2    479   POPC    H5Y   4579       0.09      1.008
 18057       CTL2    479   POPC    C36   4580      -0.18     12.011
 18058       HAL2    479   POPC    H6X   4580       0.09      1.008
 18059       HAL2    479   POPC    H6Y   4580       0.09      1.008
 18060       CTL2    479   POPC    C37   4581      -0.18     12.011
 18061       HAL2    479   POPC    H7X   4581       0.09      1.008
 18062       HAL2    479   POPC    H7Y   4581       0.09      1.008
 18063       CTL2    479   POPC    C38   4582      -0.18     12.011
 18064       HAL2    479   POPC    H8X   4582       0.09      1.008
 18065       HAL2    479   POPC    H8Y   4582       0.09      1.008
 18066       CTL2    479   POPC    C39   4583      -0.18     12.011
 18067       HAL2    479   POPC    H9X   4583       0.09      1.008
 18068       HAL2    479   POPC    H9Y   4583       0.09      1.008
 18069       CTL2    479   POPC   C310   4584      -0.18     12.011
 18070       HAL2    479   POPC   H10X   4584       0.09      1.008
 18071       HAL2    479   POPC   H10Y   4584       0.09      1.008
 18072       CTL2    479   POPC   C311   4585      -0.18     12.011
 18073       HAL2    479   POPC   H11X   4585       0.09      1.008
 18074       HAL2    479   POPC   H11Y   4585       0.09      1.008
 18075       CTL2    479   POPC   C312   4586      -0.18     12.011
 18076       HAL2    479   POPC   H12X   4586       0.09      1.008
 18077       HAL2    479   POPC   H12Y   4586       0.09      1.008
 18078       CTL2    479   POPC   C313   4587      -0.18     12.011
 18079       HAL2    479   POPC   H13X   4587       0.09      1.008
 18080       HAL2    479   POPC   H13Y   4587       0.09      1.008
 18081       CTL2    479   POPC   C314   4588      -0.18     12.011
 18082       HAL2    479   POPC   H14X   4588       0.09      1.008
 18083       HAL2    479   POPC   H14Y   4588       0.09      1.008
 18084       CTL2    479   POPC   C315   4589      -0.18     12.011
 18085       HAL2    479   POPC   H15X   4589       0.09      1.008
 18086       HAL2    479   POPC   H15Y   4589       0.09      1.008
 18087       CTL3    479   POPC   C316   4590      -0.27     12.011
 18088       HAL3    479   POPC   H16X   4590       0.09      1.008
 18089       HAL3    479   POPC   H16Y   4590       0.09      1.008
 18090       HAL3    479   POPC   H16Z   4590       0.09      1.008   ; qtot 0
; residue 480 POPC rtp POPC q  0.0
 18091        NTL    480   POPC      N   4591       -0.6     14.007
 18092       CTL2    480   POPC    C12   4591       -0.1     12.011
 18093         HL    480   POPC   H12A   4591       0.25      1.008
 18094         HL    480   POPC   H12B   4591       0.25      1.008
 18095       CTL5    480   POPC    C13   4591      -0.35     12.011
 18096         HL    480   POPC   H13A   4591       0.25      1.008
 18097         HL    480   POPC   H13B   4591       0.25      1.008
 18098         HL    480   POPC   H13C   4591       0.25      1.008
 18099       CTL5    480   POPC    C14   4591      -0.35     12.011
 18100         HL    480   POPC   H14A   4591       0.25      1.008
 18101         HL    480   POPC   H14B   4591       0.25      1.008
 18102         HL    480   POPC   H14C   4591       0.25      1.008
 18103       CTL5    480   POPC    C15   4591      -0.35     12.011
 18104         HL    480   POPC   H15A   4591       0.25      1.008
 18105         HL    480   POPC   H15B   4591       0.25      1.008
 18106         HL    480   POPC   H15C   4591       0.25      1.008
 18107       CTL2    480   POPC    C11   4592      -0.08     12.011
 18108       HAL2    480   POPC   H11A   4592       0.09      1.008
 18109       HAL2    480   POPC   H11B   4592       0.09      1.008
 18110         PL    480   POPC      P   4592        1.5     30.974
 18111        O2L    480   POPC    O13   4592      -0.78    15.9994
 18112        O2L    480   POPC    O14   4592      -0.78    15.9994
 18113       OSLP    480   POPC    O12   4592      -0.57    15.9994
 18114       OSLP    480   POPC    O11   4592      -0.57    15.9994
 18115       CTL2    480   POPC     C1   4592      -0.08     12.011
 18116       HAL2    480   POPC     HA   4592       0.09      1.008
 18117       HAL2    480   POPC     HB   4592       0.09      1.008
 18118       CTL1    480   POPC     C2   4593       0.17     12.011
 18119       HAL1    480   POPC     HS   4593       0.09      1.008
 18120        OSL    480   POPC    O21   4593      -0.49    15.9994
 18121         CL    480   POPC    C21   4593        0.9     12.011
 18122        OBL    480   POPC    O22   4593      -0.63    15.9994
 18123       CTL2    480   POPC    C22   4593      -0.22     12.011
 18124       HAL2    480   POPC    H2R   4593       0.09      1.008
 18125       HAL2    480   POPC    H2S   4593       0.09      1.008
 18126       CTL2    480   POPC     C3   4594       0.08     12.011
 18127       HAL2    480   POPC     HX   4594       0.09      1.008
 18128       HAL2    480   POPC     HY   4594       0.09      1.008
 18129        OSL    480   POPC    O31   4594      -0.49    15.9994
 18130         CL    480   POPC    C31   4594        0.9     12.011
 18131        OBL    480   POPC    O32   4594      -0.63    15.9994
 18132       CTL2    480   POPC    C32   4594      -0.22     12.011
 18133       HAL2    480   POPC    H2X   4594       0.09      1.008
 18134       HAL2    480   POPC    H2Y   4594       0.09      1.008
 18135       CTL2    480   POPC    C23   4595      -0.18     12.011
 18136       HAL2    480   POPC    H3R   4595       0.09      1.008
 18137       HAL2    480   POPC    H3S   4595       0.09      1.008
 18138       CTL2    480   POPC    C24   4596      -0.18     12.011
 18139       HAL2    480   POPC    H4R   4596       0.09      1.008
 18140       HAL2    480   POPC    H4S   4596       0.09      1.008
 18141       CTL2    480   POPC    C25   4597      -0.18     12.011
 18142       HAL2    480   POPC    H5R   4597       0.09      1.008
 18143       HAL2    480   POPC    H5S   4597       0.09      1.008
 18144       CTL2    480   POPC    C26   4598      -0.18     12.011
 18145       HAL2    480   POPC    H6R   4598       0.09      1.008
 18146       HAL2    480   POPC    H6S   4598       0.09      1.008
 18147       CTL2    480   POPC    C27   4599      -0.18     12.011
 18148       HAL2    480   POPC    H7R   4599       0.09      1.008
 18149       HAL2    480   POPC    H7S   4599       0.09      1.008
 18150       CTL2    480   POPC    C28   4600      -0.18     12.011
 18151       HAL2    480   POPC    H8R   4600       0.09      1.008
 18152       HAL2    480   POPC    H8S   4600       0.09      1.008
 18153       CEL1    480   POPC    C29   4601      -0.15     12.011
 18154       HEL1    480   POPC    H91   4601       0.15      1.008
 18155       CEL1    480   POPC   C210   4602      -0.15     12.011
 18156       HEL1    480   POPC   H101   4602       0.15      1.008
 18157       CTL2    480   POPC   C211   4603      -0.18     12.011
 18158       HAL2    480   POPC   H11R   4603       0.09      1.008
 18159       HAL2    480   POPC   H11S   4603       0.09      1.008
 18160       CTL2    480   POPC   C212   4604      -0.18     12.011
 18161       HAL2    480   POPC   H12R   4604       0.09      1.008
 18162       HAL2    480   POPC   H12S   4604       0.09      1.008
 18163       CTL2    480   POPC   C213   4605      -0.18     12.011
 18164       HAL2    480   POPC   H13R   4605       0.09      1.008
 18165       HAL2    480   POPC   H13S   4605       0.09      1.008
 18166       CTL2    480   POPC   C214   4606      -0.18     12.011
 18167       HAL2    480   POPC   H14R   4606       0.09      1.008
 18168       HAL2    480   POPC   H14S   4606       0.09      1.008
 18169       CTL2    480   POPC   C215   4607      -0.18     12.011
 18170       HAL2    480   POPC   H15R   4607       0.09      1.008
 18171       HAL2    480   POPC   H15S   4607       0.09      1.008
 18172       CTL2    480   POPC   C216   4608      -0.18     12.011
 18173       HAL2    480   POPC   H16R   4608       0.09      1.008
 18174       HAL2    480   POPC   H16S   4608       0.09      1.008
 18175       CTL2    480   POPC   C217   4609      -0.18     12.011
 18176       HAL2    480   POPC   H17R   4609       0.09      1.008
 18177       HAL2    480   POPC   H17S   4609       0.09      1.008
 18178       CTL3    480   POPC   C218   4610      -0.27     12.011
 18179       HAL3    480   POPC   H18R   4610       0.09      1.008
 18180       HAL3    480   POPC   H18S   4610       0.09      1.008
 18181       HAL3    480   POPC   H18T   4610       0.09      1.008
 18182       CTL2    480   POPC    C33   4611      -0.18     12.011
 18183       HAL2    480   POPC    H3X   4611       0.09      1.008
 18184       HAL2    480   POPC    H3Y   4611       0.09      1.008
 18185       CTL2    480   POPC    C34   4612      -0.18     12.011
 18186       HAL2    480   POPC    H4X   4612       0.09      1.008
 18187       HAL2    480   POPC    H4Y   4612       0.09      1.008
 18188       CTL2    480   POPC    C35   4613      -0.18     12.011
 18189       HAL2    480   POPC    H5X   4613       0.09      1.008
 18190       HAL2    480   POPC    H5Y   4613       0.09      1.008
 18191       CTL2    480   POPC    C36   4614      -0.18     12.011
 18192       HAL2    480   POPC    H6X   4614       0.09      1.008
 18193       HAL2    480   POPC    H6Y   4614       0.09      1.008
 18194       CTL2    480   POPC    C37   4615      -0.18     12.011
 18195       HAL2    480   POPC    H7X   4615       0.09      1.008
 18196       HAL2    480   POPC    H7Y   4615       0.09      1.008
 18197       CTL2    480   POPC    C38   4616      -0.18     12.011
 18198       HAL2    480   POPC    H8X   4616       0.09      1.008
 18199       HAL2    480   POPC    H8Y   4616       0.09      1.008
 18200       CTL2    480   POPC    C39   4617      -0.18     12.011
 18201       HAL2    480   POPC    H9X   4617       0.09      1.008
 18202       HAL2    480   POPC    H9Y   4617       0.09      1.008
 18203       CTL2    480   POPC   C310   4618      -0.18     12.011
 18204       HAL2    480   POPC   H10X   4618       0.09      1.008
 18205       HAL2    480   POPC   H10Y   4618       0.09      1.008
 18206       CTL2    480   POPC   C311   4619      -0.18     12.011
 18207       HAL2    480   POPC   H11X   4619       0.09      1.008
 18208       HAL2    480   POPC   H11Y   4619       0.09      1.008
 18209       CTL2    480   POPC   C312   4620      -0.18     12.011
 18210       HAL2    480   POPC   H12X   4620       0.09      1.008
 18211       HAL2    480   POPC   H12Y   4620       0.09      1.008
 18212       CTL2    480   POPC   C313   4621      -0.18     12.011
 18213       HAL2    480   POPC   H13X   4621       0.09      1.008
 18214       HAL2    480   POPC   H13Y   4621       0.09      1.008
 18215       CTL2    480   POPC   C314   4622      -0.18     12.011
 18216       HAL2    480   POPC   H14X   4622       0.09      1.008
 18217       HAL2    480   POPC   H14Y   4622       0.09      1.008
 18218       CTL2    480   POPC   C315   4623      -0.18     12.011
 18219       HAL2    480   POPC   H15X   4623       0.09      1.008
 18220       HAL2    480   POPC   H15Y   4623       0.09      1.008
 18221       CTL3    480   POPC   C316   4624      -0.27     12.011
 18222       HAL3    480   POPC   H16X   4624       0.09      1.008
 18223       HAL3    480   POPC   H16Y   4624       0.09      1.008
 18224       HAL3    480   POPC   H16Z   4624       0.09      1.008   ; qtot 0
; residue 481 POPC rtp POPC q  0.0
 18225        NTL    481   POPC      N   4625       -0.6     14.007
 18226       CTL2    481   POPC    C12   4625       -0.1     12.011
 18227         HL    481   POPC   H12A   4625       0.25      1.008
 18228         HL    481   POPC   H12B   4625       0.25      1.008
 18229       CTL5    481   POPC    C13   4625      -0.35     12.011
 18230         HL    481   POPC   H13A   4625       0.25      1.008
 18231         HL    481   POPC   H13B   4625       0.25      1.008
 18232         HL    481   POPC   H13C   4625       0.25      1.008
 18233       CTL5    481   POPC    C14   4625      -0.35     12.011
 18234         HL    481   POPC   H14A   4625       0.25      1.008
 18235         HL    481   POPC   H14B   4625       0.25      1.008
 18236         HL    481   POPC   H14C   4625       0.25      1.008
 18237       CTL5    481   POPC    C15   4625      -0.35     12.011
 18238         HL    481   POPC   H15A   4625       0.25      1.008
 18239         HL    481   POPC   H15B   4625       0.25      1.008
 18240         HL    481   POPC   H15C   4625       0.25      1.008
 18241       CTL2    481   POPC    C11   4626      -0.08     12.011
 18242       HAL2    481   POPC   H11A   4626       0.09      1.008
 18243       HAL2    481   POPC   H11B   4626       0.09      1.008
 18244         PL    481   POPC      P   4626        1.5     30.974
 18245        O2L    481   POPC    O13   4626      -0.78    15.9994
 18246        O2L    481   POPC    O14   4626      -0.78    15.9994
 18247       OSLP    481   POPC    O12   4626      -0.57    15.9994
 18248       OSLP    481   POPC    O11   4626      -0.57    15.9994
 18249       CTL2    481   POPC     C1   4626      -0.08     12.011
 18250       HAL2    481   POPC     HA   4626       0.09      1.008
 18251       HAL2    481   POPC     HB   4626       0.09      1.008
 18252       CTL1    481   POPC     C2   4627       0.17     12.011
 18253       HAL1    481   POPC     HS   4627       0.09      1.008
 18254        OSL    481   POPC    O21   4627      -0.49    15.9994
 18255         CL    481   POPC    C21   4627        0.9     12.011
 18256        OBL    481   POPC    O22   4627      -0.63    15.9994
 18257       CTL2    481   POPC    C22   4627      -0.22     12.011
 18258       HAL2    481   POPC    H2R   4627       0.09      1.008
 18259       HAL2    481   POPC    H2S   4627       0.09      1.008
 18260       CTL2    481   POPC     C3   4628       0.08     12.011
 18261       HAL2    481   POPC     HX   4628       0.09      1.008
 18262       HAL2    481   POPC     HY   4628       0.09      1.008
 18263        OSL    481   POPC    O31   4628      -0.49    15.9994
 18264         CL    481   POPC    C31   4628        0.9     12.011
 18265        OBL    481   POPC    O32   4628      -0.63    15.9994
 18266       CTL2    481   POPC    C32   4628      -0.22     12.011
 18267       HAL2    481   POPC    H2X   4628       0.09      1.008
 18268       HAL2    481   POPC    H2Y   4628       0.09      1.008
 18269       CTL2    481   POPC    C23   4629      -0.18     12.011
 18270       HAL2    481   POPC    H3R   4629       0.09      1.008
 18271       HAL2    481   POPC    H3S   4629       0.09      1.008
 18272       CTL2    481   POPC    C24   4630      -0.18     12.011
 18273       HAL2    481   POPC    H4R   4630       0.09      1.008
 18274       HAL2    481   POPC    H4S   4630       0.09      1.008
 18275       CTL2    481   POPC    C25   4631      -0.18     12.011
 18276       HAL2    481   POPC    H5R   4631       0.09      1.008
 18277       HAL2    481   POPC    H5S   4631       0.09      1.008
 18278       CTL2    481   POPC    C26   4632      -0.18     12.011
 18279       HAL2    481   POPC    H6R   4632       0.09      1.008
 18280       HAL2    481   POPC    H6S   4632       0.09      1.008
 18281       CTL2    481   POPC    C27   4633      -0.18     12.011
 18282       HAL2    481   POPC    H7R   4633       0.09      1.008
 18283       HAL2    481   POPC    H7S   4633       0.09      1.008
 18284       CTL2    481   POPC    C28   4634      -0.18     12.011
 18285       HAL2    481   POPC    H8R   4634       0.09      1.008
 18286       HAL2    481   POPC    H8S   4634       0.09      1.008
 18287       CEL1    481   POPC    C29   4635      -0.15     12.011
 18288       HEL1    481   POPC    H91   4635       0.15      1.008
 18289       CEL1    481   POPC   C210   4636      -0.15     12.011
 18290       HEL1    481   POPC   H101   4636       0.15      1.008
 18291       CTL2    481   POPC   C211   4637      -0.18     12.011
 18292       HAL2    481   POPC   H11R   4637       0.09      1.008
 18293       HAL2    481   POPC   H11S   4637       0.09      1.008
 18294       CTL2    481   POPC   C212   4638      -0.18     12.011
 18295       HAL2    481   POPC   H12R   4638       0.09      1.008
 18296       HAL2    481   POPC   H12S   4638       0.09      1.008
 18297       CTL2    481   POPC   C213   4639      -0.18     12.011
 18298       HAL2    481   POPC   H13R   4639       0.09      1.008
 18299       HAL2    481   POPC   H13S   4639       0.09      1.008
 18300       CTL2    481   POPC   C214   4640      -0.18     12.011
 18301       HAL2    481   POPC   H14R   4640       0.09      1.008
 18302       HAL2    481   POPC   H14S   4640       0.09      1.008
 18303       CTL2    481   POPC   C215   4641      -0.18     12.011
 18304       HAL2    481   POPC   H15R   4641       0.09      1.008
 18305       HAL2    481   POPC   H15S   4641       0.09      1.008
 18306       CTL2    481   POPC   C216   4642      -0.18     12.011
 18307       HAL2    481   POPC   H16R   4642       0.09      1.008
 18308       HAL2    481   POPC   H16S   4642       0.09      1.008
 18309       CTL2    481   POPC   C217   4643      -0.18     12.011
 18310       HAL2    481   POPC   H17R   4643       0.09      1.008
 18311       HAL2    481   POPC   H17S   4643       0.09      1.008
 18312       CTL3    481   POPC   C218   4644      -0.27     12.011
 18313       HAL3    481   POPC   H18R   4644       0.09      1.008
 18314       HAL3    481   POPC   H18S   4644       0.09      1.008
 18315       HAL3    481   POPC   H18T   4644       0.09      1.008
 18316       CTL2    481   POPC    C33   4645      -0.18     12.011
 18317       HAL2    481   POPC    H3X   4645       0.09      1.008
 18318       HAL2    481   POPC    H3Y   4645       0.09      1.008
 18319       CTL2    481   POPC    C34   4646      -0.18     12.011
 18320       HAL2    481   POPC    H4X   4646       0.09      1.008
 18321       HAL2    481   POPC    H4Y   4646       0.09      1.008
 18322       CTL2    481   POPC    C35   4647      -0.18     12.011
 18323       HAL2    481   POPC    H5X   4647       0.09      1.008
 18324       HAL2    481   POPC    H5Y   4647       0.09      1.008
 18325       CTL2    481   POPC    C36   4648      -0.18     12.011
 18326       HAL2    481   POPC    H6X   4648       0.09      1.008
 18327       HAL2    481   POPC    H6Y   4648       0.09      1.008
 18328       CTL2    481   POPC    C37   4649      -0.18     12.011
 18329       HAL2    481   POPC    H7X   4649       0.09      1.008
 18330       HAL2    481   POPC    H7Y   4649       0.09      1.008
 18331       CTL2    481   POPC    C38   4650      -0.18     12.011
 18332       HAL2    481   POPC    H8X   4650       0.09      1.008
 18333       HAL2    481   POPC    H8Y   4650       0.09      1.008
 18334       CTL2    481   POPC    C39   4651      -0.18     12.011
 18335       HAL2    481   POPC    H9X   4651       0.09      1.008
 18336       HAL2    481   POPC    H9Y   4651       0.09      1.008
 18337       CTL2    481   POPC   C310   4652      -0.18     12.011
 18338       HAL2    481   POPC   H10X   4652       0.09      1.008
 18339       HAL2    481   POPC   H10Y   4652       0.09      1.008
 18340       CTL2    481   POPC   C311   4653      -0.18     12.011
 18341       HAL2    481   POPC   H11X   4653       0.09      1.008
 18342       HAL2    481   POPC   H11Y   4653       0.09      1.008
 18343       CTL2    481   POPC   C312   4654      -0.18     12.011
 18344       HAL2    481   POPC   H12X   4654       0.09      1.008
 18345       HAL2    481   POPC   H12Y   4654       0.09      1.008
 18346       CTL2    481   POPC   C313   4655      -0.18     12.011
 18347       HAL2    481   POPC   H13X   4655       0.09      1.008
 18348       HAL2    481   POPC   H13Y   4655       0.09      1.008
 18349       CTL2    481   POPC   C314   4656      -0.18     12.011
 18350       HAL2    481   POPC   H14X   4656       0.09      1.008
 18351       HAL2    481   POPC   H14Y   4656       0.09      1.008
 18352       CTL2    481   POPC   C315   4657      -0.18     12.011
 18353       HAL2    481   POPC   H15X   4657       0.09      1.008
 18354       HAL2    481   POPC   H15Y   4657       0.09      1.008
 18355       CTL3    481   POPC   C316   4658      -0.27     12.011
 18356       HAL3    481   POPC   H16X   4658       0.09      1.008
 18357       HAL3    481   POPC   H16Y   4658       0.09      1.008
 18358       HAL3    481   POPC   H16Z   4658       0.09      1.008   ; qtot 0
; residue 482 POPC rtp POPC q  0.0
 18359        NTL    482   POPC      N   4659       -0.6     14.007
 18360       CTL2    482   POPC    C12   4659       -0.1     12.011
 18361         HL    482   POPC   H12A   4659       0.25      1.008
 18362         HL    482   POPC   H12B   4659       0.25      1.008
 18363       CTL5    482   POPC    C13   4659      -0.35     12.011
 18364         HL    482   POPC   H13A   4659       0.25      1.008
 18365         HL    482   POPC   H13B   4659       0.25      1.008
 18366         HL    482   POPC   H13C   4659       0.25      1.008
 18367       CTL5    482   POPC    C14   4659      -0.35     12.011
 18368         HL    482   POPC   H14A   4659       0.25      1.008
 18369         HL    482   POPC   H14B   4659       0.25      1.008
 18370         HL    482   POPC   H14C   4659       0.25      1.008
 18371       CTL5    482   POPC    C15   4659      -0.35     12.011
 18372         HL    482   POPC   H15A   4659       0.25      1.008
 18373         HL    482   POPC   H15B   4659       0.25      1.008
 18374         HL    482   POPC   H15C   4659       0.25      1.008
 18375       CTL2    482   POPC    C11   4660      -0.08     12.011
 18376       HAL2    482   POPC   H11A   4660       0.09      1.008
 18377       HAL2    482   POPC   H11B   4660       0.09      1.008
 18378         PL    482   POPC      P   4660        1.5     30.974
 18379        O2L    482   POPC    O13   4660      -0.78    15.9994
 18380        O2L    482   POPC    O14   4660      -0.78    15.9994
 18381       OSLP    482   POPC    O12   4660      -0.57    15.9994
 18382       OSLP    482   POPC    O11   4660      -0.57    15.9994
 18383       CTL2    482   POPC     C1   4660      -0.08     12.011
 18384       HAL2    482   POPC     HA   4660       0.09      1.008
 18385       HAL2    482   POPC     HB   4660       0.09      1.008
 18386       CTL1    482   POPC     C2   4661       0.17     12.011
 18387       HAL1    482   POPC     HS   4661       0.09      1.008
 18388        OSL    482   POPC    O21   4661      -0.49    15.9994
 18389         CL    482   POPC    C21   4661        0.9     12.011
 18390        OBL    482   POPC    O22   4661      -0.63    15.9994
 18391       CTL2    482   POPC    C22   4661      -0.22     12.011
 18392       HAL2    482   POPC    H2R   4661       0.09      1.008
 18393       HAL2    482   POPC    H2S   4661       0.09      1.008
 18394       CTL2    482   POPC     C3   4662       0.08     12.011
 18395       HAL2    482   POPC     HX   4662       0.09      1.008
 18396       HAL2    482   POPC     HY   4662       0.09      1.008
 18397        OSL    482   POPC    O31   4662      -0.49    15.9994
 18398         CL    482   POPC    C31   4662        0.9     12.011
 18399        OBL    482   POPC    O32   4662      -0.63    15.9994
 18400       CTL2    482   POPC    C32   4662      -0.22     12.011
 18401       HAL2    482   POPC    H2X   4662       0.09      1.008
 18402       HAL2    482   POPC    H2Y   4662       0.09      1.008
 18403       CTL2    482   POPC    C23   4663      -0.18     12.011
 18404       HAL2    482   POPC    H3R   4663       0.09      1.008
 18405       HAL2    482   POPC    H3S   4663       0.09      1.008
 18406       CTL2    482   POPC    C24   4664      -0.18     12.011
 18407       HAL2    482   POPC    H4R   4664       0.09      1.008
 18408       HAL2    482   POPC    H4S   4664       0.09      1.008
 18409       CTL2    482   POPC    C25   4665      -0.18     12.011
 18410       HAL2    482   POPC    H5R   4665       0.09      1.008
 18411       HAL2    482   POPC    H5S   4665       0.09      1.008
 18412       CTL2    482   POPC    C26   4666      -0.18     12.011
 18413       HAL2    482   POPC    H6R   4666       0.09      1.008
 18414       HAL2    482   POPC    H6S   4666       0.09      1.008
 18415       CTL2    482   POPC    C27   4667      -0.18     12.011
 18416       HAL2    482   POPC    H7R   4667       0.09      1.008
 18417       HAL2    482   POPC    H7S   4667       0.09      1.008
 18418       CTL2    482   POPC    C28   4668      -0.18     12.011
 18419       HAL2    482   POPC    H8R   4668       0.09      1.008
 18420       HAL2    482   POPC    H8S   4668       0.09      1.008
 18421       CEL1    482   POPC    C29   4669      -0.15     12.011
 18422       HEL1    482   POPC    H91   4669       0.15      1.008
 18423       CEL1    482   POPC   C210   4670      -0.15     12.011
 18424       HEL1    482   POPC   H101   4670       0.15      1.008
 18425       CTL2    482   POPC   C211   4671      -0.18     12.011
 18426       HAL2    482   POPC   H11R   4671       0.09      1.008
 18427       HAL2    482   POPC   H11S   4671       0.09      1.008
 18428       CTL2    482   POPC   C212   4672      -0.18     12.011
 18429       HAL2    482   POPC   H12R   4672       0.09      1.008
 18430       HAL2    482   POPC   H12S   4672       0.09      1.008
 18431       CTL2    482   POPC   C213   4673      -0.18     12.011
 18432       HAL2    482   POPC   H13R   4673       0.09      1.008
 18433       HAL2    482   POPC   H13S   4673       0.09      1.008
 18434       CTL2    482   POPC   C214   4674      -0.18     12.011
 18435       HAL2    482   POPC   H14R   4674       0.09      1.008
 18436       HAL2    482   POPC   H14S   4674       0.09      1.008
 18437       CTL2    482   POPC   C215   4675      -0.18     12.011
 18438       HAL2    482   POPC   H15R   4675       0.09      1.008
 18439       HAL2    482   POPC   H15S   4675       0.09      1.008
 18440       CTL2    482   POPC   C216   4676      -0.18     12.011
 18441       HAL2    482   POPC   H16R   4676       0.09      1.008
 18442       HAL2    482   POPC   H16S   4676       0.09      1.008
 18443       CTL2    482   POPC   C217   4677      -0.18     12.011
 18444       HAL2    482   POPC   H17R   4677       0.09      1.008
 18445       HAL2    482   POPC   H17S   4677       0.09      1.008
 18446       CTL3    482   POPC   C218   4678      -0.27     12.011
 18447       HAL3    482   POPC   H18R   4678       0.09      1.008
 18448       HAL3    482   POPC   H18S   4678       0.09      1.008
 18449       HAL3    482   POPC   H18T   4678       0.09      1.008
 18450       CTL2    482   POPC    C33   4679      -0.18     12.011
 18451       HAL2    482   POPC    H3X   4679       0.09      1.008
 18452       HAL2    482   POPC    H3Y   4679       0.09      1.008
 18453       CTL2    482   POPC    C34   4680      -0.18     12.011
 18454       HAL2    482   POPC    H4X   4680       0.09      1.008
 18455       HAL2    482   POPC    H4Y   4680       0.09      1.008
 18456       CTL2    482   POPC    C35   4681      -0.18     12.011
 18457       HAL2    482   POPC    H5X   4681       0.09      1.008
 18458       HAL2    482   POPC    H5Y   4681       0.09      1.008
 18459       CTL2    482   POPC    C36   4682      -0.18     12.011
 18460       HAL2    482   POPC    H6X   4682       0.09      1.008
 18461       HAL2    482   POPC    H6Y   4682       0.09      1.008
 18462       CTL2    482   POPC    C37   4683      -0.18     12.011
 18463       HAL2    482   POPC    H7X   4683       0.09      1.008
 18464       HAL2    482   POPC    H7Y   4683       0.09      1.008
 18465       CTL2    482   POPC    C38   4684      -0.18     12.011
 18466       HAL2    482   POPC    H8X   4684       0.09      1.008
 18467       HAL2    482   POPC    H8Y   4684       0.09      1.008
 18468       CTL2    482   POPC    C39   4685      -0.18     12.011
 18469       HAL2    482   POPC    H9X   4685       0.09      1.008
 18470       HAL2    482   POPC    H9Y   4685       0.09      1.008
 18471       CTL2    482   POPC   C310   4686      -0.18     12.011
 18472       HAL2    482   POPC   H10X   4686       0.09      1.008
 18473       HAL2    482   POPC   H10Y   4686       0.09      1.008
 18474       CTL2    482   POPC   C311   4687      -0.18     12.011
 18475       HAL2    482   POPC   H11X   4687       0.09      1.008
 18476       HAL2    482   POPC   H11Y   4687       0.09      1.008
 18477       CTL2    482   POPC   C312   4688      -0.18     12.011
 18478       HAL2    482   POPC   H12X   4688       0.09      1.008
 18479       HAL2    482   POPC   H12Y   4688       0.09      1.008
 18480       CTL2    482   POPC   C313   4689      -0.18     12.011
 18481       HAL2    482   POPC   H13X   4689       0.09      1.008
 18482       HAL2    482   POPC   H13Y   4689       0.09      1.008
 18483       CTL2    482   POPC   C314   4690      -0.18     12.011
 18484       HAL2    482   POPC   H14X   4690       0.09      1.008
 18485       HAL2    482   POPC   H14Y   4690       0.09      1.008
 18486       CTL2    482   POPC   C315   4691      -0.18     12.011
 18487       HAL2    482   POPC   H15X   4691       0.09      1.008
 18488       HAL2    482   POPC   H15Y   4691       0.09      1.008
 18489       CTL3    482   POPC   C316   4692      -0.27     12.011
 18490       HAL3    482   POPC   H16X   4692       0.09      1.008
 18491       HAL3    482   POPC   H16Y   4692       0.09      1.008
 18492       HAL3    482   POPC   H16Z   4692       0.09      1.008   ; qtot 0
; residue 483 POPC rtp POPC q  0.0
 18493        NTL    483   POPC      N   4693       -0.6     14.007
 18494       CTL2    483   POPC    C12   4693       -0.1     12.011
 18495         HL    483   POPC   H12A   4693       0.25      1.008
 18496         HL    483   POPC   H12B   4693       0.25      1.008
 18497       CTL5    483   POPC    C13   4693      -0.35     12.011
 18498         HL    483   POPC   H13A   4693       0.25      1.008
 18499         HL    483   POPC   H13B   4693       0.25      1.008
 18500         HL    483   POPC   H13C   4693       0.25      1.008
 18501       CTL5    483   POPC    C14   4693      -0.35     12.011
 18502         HL    483   POPC   H14A   4693       0.25      1.008
 18503         HL    483   POPC   H14B   4693       0.25      1.008
 18504         HL    483   POPC   H14C   4693       0.25      1.008
 18505       CTL5    483   POPC    C15   4693      -0.35     12.011
 18506         HL    483   POPC   H15A   4693       0.25      1.008
 18507         HL    483   POPC   H15B   4693       0.25      1.008
 18508         HL    483   POPC   H15C   4693       0.25      1.008
 18509       CTL2    483   POPC    C11   4694      -0.08     12.011
 18510       HAL2    483   POPC   H11A   4694       0.09      1.008
 18511       HAL2    483   POPC   H11B   4694       0.09      1.008
 18512         PL    483   POPC      P   4694        1.5     30.974
 18513        O2L    483   POPC    O13   4694      -0.78    15.9994
 18514        O2L    483   POPC    O14   4694      -0.78    15.9994
 18515       OSLP    483   POPC    O12   4694      -0.57    15.9994
 18516       OSLP    483   POPC    O11   4694      -0.57    15.9994
 18517       CTL2    483   POPC     C1   4694      -0.08     12.011
 18518       HAL2    483   POPC     HA   4694       0.09      1.008
 18519       HAL2    483   POPC     HB   4694       0.09      1.008
 18520       CTL1    483   POPC     C2   4695       0.17     12.011
 18521       HAL1    483   POPC     HS   4695       0.09      1.008
 18522        OSL    483   POPC    O21   4695      -0.49    15.9994
 18523         CL    483   POPC    C21   4695        0.9     12.011
 18524        OBL    483   POPC    O22   4695      -0.63    15.9994
 18525       CTL2    483   POPC    C22   4695      -0.22     12.011
 18526       HAL2    483   POPC    H2R   4695       0.09      1.008
 18527       HAL2    483   POPC    H2S   4695       0.09      1.008
 18528       CTL2    483   POPC     C3   4696       0.08     12.011
 18529       HAL2    483   POPC     HX   4696       0.09      1.008
 18530       HAL2    483   POPC     HY   4696       0.09      1.008
 18531        OSL    483   POPC    O31   4696      -0.49    15.9994
 18532         CL    483   POPC    C31   4696        0.9     12.011
 18533        OBL    483   POPC    O32   4696      -0.63    15.9994
 18534       CTL2    483   POPC    C32   4696      -0.22     12.011
 18535       HAL2    483   POPC    H2X   4696       0.09      1.008
 18536       HAL2    483   POPC    H2Y   4696       0.09      1.008
 18537       CTL2    483   POPC    C23   4697      -0.18     12.011
 18538       HAL2    483   POPC    H3R   4697       0.09      1.008
 18539       HAL2    483   POPC    H3S   4697       0.09      1.008
 18540       CTL2    483   POPC    C24   4698      -0.18     12.011
 18541       HAL2    483   POPC    H4R   4698       0.09      1.008
 18542       HAL2    483   POPC    H4S   4698       0.09      1.008
 18543       CTL2    483   POPC    C25   4699      -0.18     12.011
 18544       HAL2    483   POPC    H5R   4699       0.09      1.008
 18545       HAL2    483   POPC    H5S   4699       0.09      1.008
 18546       CTL2    483   POPC    C26   4700      -0.18     12.011
 18547       HAL2    483   POPC    H6R   4700       0.09      1.008
 18548       HAL2    483   POPC    H6S   4700       0.09      1.008
 18549       CTL2    483   POPC    C27   4701      -0.18     12.011
 18550       HAL2    483   POPC    H7R   4701       0.09      1.008
 18551       HAL2    483   POPC    H7S   4701       0.09      1.008
 18552       CTL2    483   POPC    C28   4702      -0.18     12.011
 18553       HAL2    483   POPC    H8R   4702       0.09      1.008
 18554       HAL2    483   POPC    H8S   4702       0.09      1.008
 18555       CEL1    483   POPC    C29   4703      -0.15     12.011
 18556       HEL1    483   POPC    H91   4703       0.15      1.008
 18557       CEL1    483   POPC   C210   4704      -0.15     12.011
 18558       HEL1    483   POPC   H101   4704       0.15      1.008
 18559       CTL2    483   POPC   C211   4705      -0.18     12.011
 18560       HAL2    483   POPC   H11R   4705       0.09      1.008
 18561       HAL2    483   POPC   H11S   4705       0.09      1.008
 18562       CTL2    483   POPC   C212   4706      -0.18     12.011
 18563       HAL2    483   POPC   H12R   4706       0.09      1.008
 18564       HAL2    483   POPC   H12S   4706       0.09      1.008
 18565       CTL2    483   POPC   C213   4707      -0.18     12.011
 18566       HAL2    483   POPC   H13R   4707       0.09      1.008
 18567       HAL2    483   POPC   H13S   4707       0.09      1.008
 18568       CTL2    483   POPC   C214   4708      -0.18     12.011
 18569       HAL2    483   POPC   H14R   4708       0.09      1.008
 18570       HAL2    483   POPC   H14S   4708       0.09      1.008
 18571       CTL2    483   POPC   C215   4709      -0.18     12.011
 18572       HAL2    483   POPC   H15R   4709       0.09      1.008
 18573       HAL2    483   POPC   H15S   4709       0.09      1.008
 18574       CTL2    483   POPC   C216   4710      -0.18     12.011
 18575       HAL2    483   POPC   H16R   4710       0.09      1.008
 18576       HAL2    483   POPC   H16S   4710       0.09      1.008
 18577       CTL2    483   POPC   C217   4711      -0.18     12.011
 18578       HAL2    483   POPC   H17R   4711       0.09      1.008
 18579       HAL2    483   POPC   H17S   4711       0.09      1.008
 18580       CTL3    483   POPC   C218   4712      -0.27     12.011
 18581       HAL3    483   POPC   H18R   4712       0.09      1.008
 18582       HAL3    483   POPC   H18S   4712       0.09      1.008
 18583       HAL3    483   POPC   H18T   4712       0.09      1.008
 18584       CTL2    483   POPC    C33   4713      -0.18     12.011
 18585       HAL2    483   POPC    H3X   4713       0.09      1.008
 18586       HAL2    483   POPC    H3Y   4713       0.09      1.008
 18587       CTL2    483   POPC    C34   4714      -0.18     12.011
 18588       HAL2    483   POPC    H4X   4714       0.09      1.008
 18589       HAL2    483   POPC    H4Y   4714       0.09      1.008
 18590       CTL2    483   POPC    C35   4715      -0.18     12.011
 18591       HAL2    483   POPC    H5X   4715       0.09      1.008
 18592       HAL2    483   POPC    H5Y   4715       0.09      1.008
 18593       CTL2    483   POPC    C36   4716      -0.18     12.011
 18594       HAL2    483   POPC    H6X   4716       0.09      1.008
 18595       HAL2    483   POPC    H6Y   4716       0.09      1.008
 18596       CTL2    483   POPC    C37   4717      -0.18     12.011
 18597       HAL2    483   POPC    H7X   4717       0.09      1.008
 18598       HAL2    483   POPC    H7Y   4717       0.09      1.008
 18599       CTL2    483   POPC    C38   4718      -0.18     12.011
 18600       HAL2    483   POPC    H8X   4718       0.09      1.008
 18601       HAL2    483   POPC    H8Y   4718       0.09      1.008
 18602       CTL2    483   POPC    C39   4719      -0.18     12.011
 18603       HAL2    483   POPC    H9X   4719       0.09      1.008
 18604       HAL2    483   POPC    H9Y   4719       0.09      1.008
 18605       CTL2    483   POPC   C310   4720      -0.18     12.011
 18606       HAL2    483   POPC   H10X   4720       0.09      1.008
 18607       HAL2    483   POPC   H10Y   4720       0.09      1.008
 18608       CTL2    483   POPC   C311   4721      -0.18     12.011
 18609       HAL2    483   POPC   H11X   4721       0.09      1.008
 18610       HAL2    483   POPC   H11Y   4721       0.09      1.008
 18611       CTL2    483   POPC   C312   4722      -0.18     12.011
 18612       HAL2    483   POPC   H12X   4722       0.09      1.008
 18613       HAL2    483   POPC   H12Y   4722       0.09      1.008
 18614       CTL2    483   POPC   C313   4723      -0.18     12.011
 18615       HAL2    483   POPC   H13X   4723       0.09      1.008
 18616       HAL2    483   POPC   H13Y   4723       0.09      1.008
 18617       CTL2    483   POPC   C314   4724      -0.18     12.011
 18618       HAL2    483   POPC   H14X   4724       0.09      1.008
 18619       HAL2    483   POPC   H14Y   4724       0.09      1.008
 18620       CTL2    483   POPC   C315   4725      -0.18     12.011
 18621       HAL2    483   POPC   H15X   4725       0.09      1.008
 18622       HAL2    483   POPC   H15Y   4725       0.09      1.008
 18623       CTL3    483   POPC   C316   4726      -0.27     12.011
 18624       HAL3    483   POPC   H16X   4726       0.09      1.008
 18625       HAL3    483   POPC   H16Y   4726       0.09      1.008
 18626       HAL3    483   POPC   H16Z   4726       0.09      1.008   ; qtot 0
; residue 484 POPC rtp POPC q  0.0
 18627        NTL    484   POPC      N   4727       -0.6     14.007
 18628       CTL2    484   POPC    C12   4727       -0.1     12.011
 18629         HL    484   POPC   H12A   4727       0.25      1.008
 18630         HL    484   POPC   H12B   4727       0.25      1.008
 18631       CTL5    484   POPC    C13   4727      -0.35     12.011
 18632         HL    484   POPC   H13A   4727       0.25      1.008
 18633         HL    484   POPC   H13B   4727       0.25      1.008
 18634         HL    484   POPC   H13C   4727       0.25      1.008
 18635       CTL5    484   POPC    C14   4727      -0.35     12.011
 18636         HL    484   POPC   H14A   4727       0.25      1.008
 18637         HL    484   POPC   H14B   4727       0.25      1.008
 18638         HL    484   POPC   H14C   4727       0.25      1.008
 18639       CTL5    484   POPC    C15   4727      -0.35     12.011
 18640         HL    484   POPC   H15A   4727       0.25      1.008
 18641         HL    484   POPC   H15B   4727       0.25      1.008
 18642         HL    484   POPC   H15C   4727       0.25      1.008
 18643       CTL2    484   POPC    C11   4728      -0.08     12.011
 18644       HAL2    484   POPC   H11A   4728       0.09      1.008
 18645       HAL2    484   POPC   H11B   4728       0.09      1.008
 18646         PL    484   POPC      P   4728        1.5     30.974
 18647        O2L    484   POPC    O13   4728      -0.78    15.9994
 18648        O2L    484   POPC    O14   4728      -0.78    15.9994
 18649       OSLP    484   POPC    O12   4728      -0.57    15.9994
 18650       OSLP    484   POPC    O11   4728      -0.57    15.9994
 18651       CTL2    484   POPC     C1   4728      -0.08     12.011
 18652       HAL2    484   POPC     HA   4728       0.09      1.008
 18653       HAL2    484   POPC     HB   4728       0.09      1.008
 18654       CTL1    484   POPC     C2   4729       0.17     12.011
 18655       HAL1    484   POPC     HS   4729       0.09      1.008
 18656        OSL    484   POPC    O21   4729      -0.49    15.9994
 18657         CL    484   POPC    C21   4729        0.9     12.011
 18658        OBL    484   POPC    O22   4729      -0.63    15.9994
 18659       CTL2    484   POPC    C22   4729      -0.22     12.011
 18660       HAL2    484   POPC    H2R   4729       0.09      1.008
 18661       HAL2    484   POPC    H2S   4729       0.09      1.008
 18662       CTL2    484   POPC     C3   4730       0.08     12.011
 18663       HAL2    484   POPC     HX   4730       0.09      1.008
 18664       HAL2    484   POPC     HY   4730       0.09      1.008
 18665        OSL    484   POPC    O31   4730      -0.49    15.9994
 18666         CL    484   POPC    C31   4730        0.9     12.011
 18667        OBL    484   POPC    O32   4730      -0.63    15.9994
 18668       CTL2    484   POPC    C32   4730      -0.22     12.011
 18669       HAL2    484   POPC    H2X   4730       0.09      1.008
 18670       HAL2    484   POPC    H2Y   4730       0.09      1.008
 18671       CTL2    484   POPC    C23   4731      -0.18     12.011
 18672       HAL2    484   POPC    H3R   4731       0.09      1.008
 18673       HAL2    484   POPC    H3S   4731       0.09      1.008
 18674       CTL2    484   POPC    C24   4732      -0.18     12.011
 18675       HAL2    484   POPC    H4R   4732       0.09      1.008
 18676       HAL2    484   POPC    H4S   4732       0.09      1.008
 18677       CTL2    484   POPC    C25   4733      -0.18     12.011
 18678       HAL2    484   POPC    H5R   4733       0.09      1.008
 18679       HAL2    484   POPC    H5S   4733       0.09      1.008
 18680       CTL2    484   POPC    C26   4734      -0.18     12.011
 18681       HAL2    484   POPC    H6R   4734       0.09      1.008
 18682       HAL2    484   POPC    H6S   4734       0.09      1.008
 18683       CTL2    484   POPC    C27   4735      -0.18     12.011
 18684       HAL2    484   POPC    H7R   4735       0.09      1.008
 18685       HAL2    484   POPC    H7S   4735       0.09      1.008
 18686       CTL2    484   POPC    C28   4736      -0.18     12.011
 18687       HAL2    484   POPC    H8R   4736       0.09      1.008
 18688       HAL2    484   POPC    H8S   4736       0.09      1.008
 18689       CEL1    484   POPC    C29   4737      -0.15     12.011
 18690       HEL1    484   POPC    H91   4737       0.15      1.008
 18691       CEL1    484   POPC   C210   4738      -0.15     12.011
 18692       HEL1    484   POPC   H101   4738       0.15      1.008
 18693       CTL2    484   POPC   C211   4739      -0.18     12.011
 18694       HAL2    484   POPC   H11R   4739       0.09      1.008
 18695       HAL2    484   POPC   H11S   4739       0.09      1.008
 18696       CTL2    484   POPC   C212   4740      -0.18     12.011
 18697       HAL2    484   POPC   H12R   4740       0.09      1.008
 18698       HAL2    484   POPC   H12S   4740       0.09      1.008
 18699       CTL2    484   POPC   C213   4741      -0.18     12.011
 18700       HAL2    484   POPC   H13R   4741       0.09      1.008
 18701       HAL2    484   POPC   H13S   4741       0.09      1.008
 18702       CTL2    484   POPC   C214   4742      -0.18     12.011
 18703       HAL2    484   POPC   H14R   4742       0.09      1.008
 18704       HAL2    484   POPC   H14S   4742       0.09      1.008
 18705       CTL2    484   POPC   C215   4743      -0.18     12.011
 18706       HAL2    484   POPC   H15R   4743       0.09      1.008
 18707       HAL2    484   POPC   H15S   4743       0.09      1.008
 18708       CTL2    484   POPC   C216   4744      -0.18     12.011
 18709       HAL2    484   POPC   H16R   4744       0.09      1.008
 18710       HAL2    484   POPC   H16S   4744       0.09      1.008
 18711       CTL2    484   POPC   C217   4745      -0.18     12.011
 18712       HAL2    484   POPC   H17R   4745       0.09      1.008
 18713       HAL2    484   POPC   H17S   4745       0.09      1.008
 18714       CTL3    484   POPC   C218   4746      -0.27     12.011
 18715       HAL3    484   POPC   H18R   4746       0.09      1.008
 18716       HAL3    484   POPC   H18S   4746       0.09      1.008
 18717       HAL3    484   POPC   H18T   4746       0.09      1.008
 18718       CTL2    484   POPC    C33   4747      -0.18     12.011
 18719       HAL2    484   POPC    H3X   4747       0.09      1.008
 18720       HAL2    484   POPC    H3Y   4747       0.09      1.008
 18721       CTL2    484   POPC    C34   4748      -0.18     12.011
 18722       HAL2    484   POPC    H4X   4748       0.09      1.008
 18723       HAL2    484   POPC    H4Y   4748       0.09      1.008
 18724       CTL2    484   POPC    C35   4749      -0.18     12.011
 18725       HAL2    484   POPC    H5X   4749       0.09      1.008
 18726       HAL2    484   POPC    H5Y   4749       0.09      1.008
 18727       CTL2    484   POPC    C36   4750      -0.18     12.011
 18728       HAL2    484   POPC    H6X   4750       0.09      1.008
 18729       HAL2    484   POPC    H6Y   4750       0.09      1.008
 18730       CTL2    484   POPC    C37   4751      -0.18     12.011
 18731       HAL2    484   POPC    H7X   4751       0.09      1.008
 18732       HAL2    484   POPC    H7Y   4751       0.09      1.008
 18733       CTL2    484   POPC    C38   4752      -0.18     12.011
 18734       HAL2    484   POPC    H8X   4752       0.09      1.008
 18735       HAL2    484   POPC    H8Y   4752       0.09      1.008
 18736       CTL2    484   POPC    C39   4753      -0.18     12.011
 18737       HAL2    484   POPC    H9X   4753       0.09      1.008
 18738       HAL2    484   POPC    H9Y   4753       0.09      1.008
 18739       CTL2    484   POPC   C310   4754      -0.18     12.011
 18740       HAL2    484   POPC   H10X   4754       0.09      1.008
 18741       HAL2    484   POPC   H10Y   4754       0.09      1.008
 18742       CTL2    484   POPC   C311   4755      -0.18     12.011
 18743       HAL2    484   POPC   H11X   4755       0.09      1.008
 18744       HAL2    484   POPC   H11Y   4755       0.09      1.008
 18745       CTL2    484   POPC   C312   4756      -0.18     12.011
 18746       HAL2    484   POPC   H12X   4756       0.09      1.008
 18747       HAL2    484   POPC   H12Y   4756       0.09      1.008
 18748       CTL2    484   POPC   C313   4757      -0.18     12.011
 18749       HAL2    484   POPC   H13X   4757       0.09      1.008
 18750       HAL2    484   POPC   H13Y   4757       0.09      1.008
 18751       CTL2    484   POPC   C314   4758      -0.18     12.011
 18752       HAL2    484   POPC   H14X   4758       0.09      1.008
 18753       HAL2    484   POPC   H14Y   4758       0.09      1.008
 18754       CTL2    484   POPC   C315   4759      -0.18     12.011
 18755       HAL2    484   POPC   H15X   4759       0.09      1.008
 18756       HAL2    484   POPC   H15Y   4759       0.09      1.008
 18757       CTL3    484   POPC   C316   4760      -0.27     12.011
 18758       HAL3    484   POPC   H16X   4760       0.09      1.008
 18759       HAL3    484   POPC   H16Y   4760       0.09      1.008
 18760       HAL3    484   POPC   H16Z   4760       0.09      1.008   ; qtot 0
; residue 485 POPC rtp POPC q  0.0
 18761        NTL    485   POPC      N   4761       -0.6     14.007
 18762       CTL2    485   POPC    C12   4761       -0.1     12.011
 18763         HL    485   POPC   H12A   4761       0.25      1.008
 18764         HL    485   POPC   H12B   4761       0.25      1.008
 18765       CTL5    485   POPC    C13   4761      -0.35     12.011
 18766         HL    485   POPC   H13A   4761       0.25      1.008
 18767         HL    485   POPC   H13B   4761       0.25      1.008
 18768         HL    485   POPC   H13C   4761       0.25      1.008
 18769       CTL5    485   POPC    C14   4761      -0.35     12.011
 18770         HL    485   POPC   H14A   4761       0.25      1.008
 18771         HL    485   POPC   H14B   4761       0.25      1.008
 18772         HL    485   POPC   H14C   4761       0.25      1.008
 18773       CTL5    485   POPC    C15   4761      -0.35     12.011
 18774         HL    485   POPC   H15A   4761       0.25      1.008
 18775         HL    485   POPC   H15B   4761       0.25      1.008
 18776         HL    485   POPC   H15C   4761       0.25      1.008
 18777       CTL2    485   POPC    C11   4762      -0.08     12.011
 18778       HAL2    485   POPC   H11A   4762       0.09      1.008
 18779       HAL2    485   POPC   H11B   4762       0.09      1.008
 18780         PL    485   POPC      P   4762        1.5     30.974
 18781        O2L    485   POPC    O13   4762      -0.78    15.9994
 18782        O2L    485   POPC    O14   4762      -0.78    15.9994
 18783       OSLP    485   POPC    O12   4762      -0.57    15.9994
 18784       OSLP    485   POPC    O11   4762      -0.57    15.9994
 18785       CTL2    485   POPC     C1   4762      -0.08     12.011
 18786       HAL2    485   POPC     HA   4762       0.09      1.008
 18787       HAL2    485   POPC     HB   4762       0.09      1.008
 18788       CTL1    485   POPC     C2   4763       0.17     12.011
 18789       HAL1    485   POPC     HS   4763       0.09      1.008
 18790        OSL    485   POPC    O21   4763      -0.49    15.9994
 18791         CL    485   POPC    C21   4763        0.9     12.011
 18792        OBL    485   POPC    O22   4763      -0.63    15.9994
 18793       CTL2    485   POPC    C22   4763      -0.22     12.011
 18794       HAL2    485   POPC    H2R   4763       0.09      1.008
 18795       HAL2    485   POPC    H2S   4763       0.09      1.008
 18796       CTL2    485   POPC     C3   4764       0.08     12.011
 18797       HAL2    485   POPC     HX   4764       0.09      1.008
 18798       HAL2    485   POPC     HY   4764       0.09      1.008
 18799        OSL    485   POPC    O31   4764      -0.49    15.9994
 18800         CL    485   POPC    C31   4764        0.9     12.011
 18801        OBL    485   POPC    O32   4764      -0.63    15.9994
 18802       CTL2    485   POPC    C32   4764      -0.22     12.011
 18803       HAL2    485   POPC    H2X   4764       0.09      1.008
 18804       HAL2    485   POPC    H2Y   4764       0.09      1.008
 18805       CTL2    485   POPC    C23   4765      -0.18     12.011
 18806       HAL2    485   POPC    H3R   4765       0.09      1.008
 18807       HAL2    485   POPC    H3S   4765       0.09      1.008
 18808       CTL2    485   POPC    C24   4766      -0.18     12.011
 18809       HAL2    485   POPC    H4R   4766       0.09      1.008
 18810       HAL2    485   POPC    H4S   4766       0.09      1.008
 18811       CTL2    485   POPC    C25   4767      -0.18     12.011
 18812       HAL2    485   POPC    H5R   4767       0.09      1.008
 18813       HAL2    485   POPC    H5S   4767       0.09      1.008
 18814       CTL2    485   POPC    C26   4768      -0.18     12.011
 18815       HAL2    485   POPC    H6R   4768       0.09      1.008
 18816       HAL2    485   POPC    H6S   4768       0.09      1.008
 18817       CTL2    485   POPC    C27   4769      -0.18     12.011
 18818       HAL2    485   POPC    H7R   4769       0.09      1.008
 18819       HAL2    485   POPC    H7S   4769       0.09      1.008
 18820       CTL2    485   POPC    C28   4770      -0.18     12.011
 18821       HAL2    485   POPC    H8R   4770       0.09      1.008
 18822       HAL2    485   POPC    H8S   4770       0.09      1.008
 18823       CEL1    485   POPC    C29   4771      -0.15     12.011
 18824       HEL1    485   POPC    H91   4771       0.15      1.008
 18825       CEL1    485   POPC   C210   4772      -0.15     12.011
 18826       HEL1    485   POPC   H101   4772       0.15      1.008
 18827       CTL2    485   POPC   C211   4773      -0.18     12.011
 18828       HAL2    485   POPC   H11R   4773       0.09      1.008
 18829       HAL2    485   POPC   H11S   4773       0.09      1.008
 18830       CTL2    485   POPC   C212   4774      -0.18     12.011
 18831       HAL2    485   POPC   H12R   4774       0.09      1.008
 18832       HAL2    485   POPC   H12S   4774       0.09      1.008
 18833       CTL2    485   POPC   C213   4775      -0.18     12.011
 18834       HAL2    485   POPC   H13R   4775       0.09      1.008
 18835       HAL2    485   POPC   H13S   4775       0.09      1.008
 18836       CTL2    485   POPC   C214   4776      -0.18     12.011
 18837       HAL2    485   POPC   H14R   4776       0.09      1.008
 18838       HAL2    485   POPC   H14S   4776       0.09      1.008
 18839       CTL2    485   POPC   C215   4777      -0.18     12.011
 18840       HAL2    485   POPC   H15R   4777       0.09      1.008
 18841       HAL2    485   POPC   H15S   4777       0.09      1.008
 18842       CTL2    485   POPC   C216   4778      -0.18     12.011
 18843       HAL2    485   POPC   H16R   4778       0.09      1.008
 18844       HAL2    485   POPC   H16S   4778       0.09      1.008
 18845       CTL2    485   POPC   C217   4779      -0.18     12.011
 18846       HAL2    485   POPC   H17R   4779       0.09      1.008
 18847       HAL2    485   POPC   H17S   4779       0.09      1.008
 18848       CTL3    485   POPC   C218   4780      -0.27     12.011
 18849       HAL3    485   POPC   H18R   4780       0.09      1.008
 18850       HAL3    485   POPC   H18S   4780       0.09      1.008
 18851       HAL3    485   POPC   H18T   4780       0.09      1.008
 18852       CTL2    485   POPC    C33   4781      -0.18     12.011
 18853       HAL2    485   POPC    H3X   4781       0.09      1.008
 18854       HAL2    485   POPC    H3Y   4781       0.09      1.008
 18855       CTL2    485   POPC    C34   4782      -0.18     12.011
 18856       HAL2    485   POPC    H4X   4782       0.09      1.008
 18857       HAL2    485   POPC    H4Y   4782       0.09      1.008
 18858       CTL2    485   POPC    C35   4783      -0.18     12.011
 18859       HAL2    485   POPC    H5X   4783       0.09      1.008
 18860       HAL2    485   POPC    H5Y   4783       0.09      1.008
 18861       CTL2    485   POPC    C36   4784      -0.18     12.011
 18862       HAL2    485   POPC    H6X   4784       0.09      1.008
 18863       HAL2    485   POPC    H6Y   4784       0.09      1.008
 18864       CTL2    485   POPC    C37   4785      -0.18     12.011
 18865       HAL2    485   POPC    H7X   4785       0.09      1.008
 18866       HAL2    485   POPC    H7Y   4785       0.09      1.008
 18867       CTL2    485   POPC    C38   4786      -0.18     12.011
 18868       HAL2    485   POPC    H8X   4786       0.09      1.008
 18869       HAL2    485   POPC    H8Y   4786       0.09      1.008
 18870       CTL2    485   POPC    C39   4787      -0.18     12.011
 18871       HAL2    485   POPC    H9X   4787       0.09      1.008
 18872       HAL2    485   POPC    H9Y   4787       0.09      1.008
 18873       CTL2    485   POPC   C310   4788      -0.18     12.011
 18874       HAL2    485   POPC   H10X   4788       0.09      1.008
 18875       HAL2    485   POPC   H10Y   4788       0.09      1.008
 18876       CTL2    485   POPC   C311   4789      -0.18     12.011
 18877       HAL2    485   POPC   H11X   4789       0.09      1.008
 18878       HAL2    485   POPC   H11Y   4789       0.09      1.008
 18879       CTL2    485   POPC   C312   4790      -0.18     12.011
 18880       HAL2    485   POPC   H12X   4790       0.09      1.008
 18881       HAL2    485   POPC   H12Y   4790       0.09      1.008
 18882       CTL2    485   POPC   C313   4791      -0.18     12.011
 18883       HAL2    485   POPC   H13X   4791       0.09      1.008
 18884       HAL2    485   POPC   H13Y   4791       0.09      1.008
 18885       CTL2    485   POPC   C314   4792      -0.18     12.011
 18886       HAL2    485   POPC   H14X   4792       0.09      1.008
 18887       HAL2    485   POPC   H14Y   4792       0.09      1.008
 18888       CTL2    485   POPC   C315   4793      -0.18     12.011
 18889       HAL2    485   POPC   H15X   4793       0.09      1.008
 18890       HAL2    485   POPC   H15Y   4793       0.09      1.008
 18891       CTL3    485   POPC   C316   4794      -0.27     12.011
 18892       HAL3    485   POPC   H16X   4794       0.09      1.008
 18893       HAL3    485   POPC   H16Y   4794       0.09      1.008
 18894       HAL3    485   POPC   H16Z   4794       0.09      1.008   ; qtot 0
; residue 486 POPC rtp POPC q  0.0
 18895        NTL    486   POPC      N   4795       -0.6     14.007
 18896       CTL2    486   POPC    C12   4795       -0.1     12.011
 18897         HL    486   POPC   H12A   4795       0.25      1.008
 18898         HL    486   POPC   H12B   4795       0.25      1.008
 18899       CTL5    486   POPC    C13   4795      -0.35     12.011
 18900         HL    486   POPC   H13A   4795       0.25      1.008
 18901         HL    486   POPC   H13B   4795       0.25      1.008
 18902         HL    486   POPC   H13C   4795       0.25      1.008
 18903       CTL5    486   POPC    C14   4795      -0.35     12.011
 18904         HL    486   POPC   H14A   4795       0.25      1.008
 18905         HL    486   POPC   H14B   4795       0.25      1.008
 18906         HL    486   POPC   H14C   4795       0.25      1.008
 18907       CTL5    486   POPC    C15   4795      -0.35     12.011
 18908         HL    486   POPC   H15A   4795       0.25      1.008
 18909         HL    486   POPC   H15B   4795       0.25      1.008
 18910         HL    486   POPC   H15C   4795       0.25      1.008
 18911       CTL2    486   POPC    C11   4796      -0.08     12.011
 18912       HAL2    486   POPC   H11A   4796       0.09      1.008
 18913       HAL2    486   POPC   H11B   4796       0.09      1.008
 18914         PL    486   POPC      P   4796        1.5     30.974
 18915        O2L    486   POPC    O13   4796      -0.78    15.9994
 18916        O2L    486   POPC    O14   4796      -0.78    15.9994
 18917       OSLP    486   POPC    O12   4796      -0.57    15.9994
 18918       OSLP    486   POPC    O11   4796      -0.57    15.9994
 18919       CTL2    486   POPC     C1   4796      -0.08     12.011
 18920       HAL2    486   POPC     HA   4796       0.09      1.008
 18921       HAL2    486   POPC     HB   4796       0.09      1.008
 18922       CTL1    486   POPC     C2   4797       0.17     12.011
 18923       HAL1    486   POPC     HS   4797       0.09      1.008
 18924        OSL    486   POPC    O21   4797      -0.49    15.9994
 18925         CL    486   POPC    C21   4797        0.9     12.011
 18926        OBL    486   POPC    O22   4797      -0.63    15.9994
 18927       CTL2    486   POPC    C22   4797      -0.22     12.011
 18928       HAL2    486   POPC    H2R   4797       0.09      1.008
 18929       HAL2    486   POPC    H2S   4797       0.09      1.008
 18930       CTL2    486   POPC     C3   4798       0.08     12.011
 18931       HAL2    486   POPC     HX   4798       0.09      1.008
 18932       HAL2    486   POPC     HY   4798       0.09      1.008
 18933        OSL    486   POPC    O31   4798      -0.49    15.9994
 18934         CL    486   POPC    C31   4798        0.9     12.011
 18935        OBL    486   POPC    O32   4798      -0.63    15.9994
 18936       CTL2    486   POPC    C32   4798      -0.22     12.011
 18937       HAL2    486   POPC    H2X   4798       0.09      1.008
 18938       HAL2    486   POPC    H2Y   4798       0.09      1.008
 18939       CTL2    486   POPC    C23   4799      -0.18     12.011
 18940       HAL2    486   POPC    H3R   4799       0.09      1.008
 18941       HAL2    486   POPC    H3S   4799       0.09      1.008
 18942       CTL2    486   POPC    C24   4800      -0.18     12.011
 18943       HAL2    486   POPC    H4R   4800       0.09      1.008
 18944       HAL2    486   POPC    H4S   4800       0.09      1.008
 18945       CTL2    486   POPC    C25   4801      -0.18     12.011
 18946       HAL2    486   POPC    H5R   4801       0.09      1.008
 18947       HAL2    486   POPC    H5S   4801       0.09      1.008
 18948       CTL2    486   POPC    C26   4802      -0.18     12.011
 18949       HAL2    486   POPC    H6R   4802       0.09      1.008
 18950       HAL2    486   POPC    H6S   4802       0.09      1.008
 18951       CTL2    486   POPC    C27   4803      -0.18     12.011
 18952       HAL2    486   POPC    H7R   4803       0.09      1.008
 18953       HAL2    486   POPC    H7S   4803       0.09      1.008
 18954       CTL2    486   POPC    C28   4804      -0.18     12.011
 18955       HAL2    486   POPC    H8R   4804       0.09      1.008
 18956       HAL2    486   POPC    H8S   4804       0.09      1.008
 18957       CEL1    486   POPC    C29   4805      -0.15     12.011
 18958       HEL1    486   POPC    H91   4805       0.15      1.008
 18959       CEL1    486   POPC   C210   4806      -0.15     12.011
 18960       HEL1    486   POPC   H101   4806       0.15      1.008
 18961       CTL2    486   POPC   C211   4807      -0.18     12.011
 18962       HAL2    486   POPC   H11R   4807       0.09      1.008
 18963       HAL2    486   POPC   H11S   4807       0.09      1.008
 18964       CTL2    486   POPC   C212   4808      -0.18     12.011
 18965       HAL2    486   POPC   H12R   4808       0.09      1.008
 18966       HAL2    486   POPC   H12S   4808       0.09      1.008
 18967       CTL2    486   POPC   C213   4809      -0.18     12.011
 18968       HAL2    486   POPC   H13R   4809       0.09      1.008
 18969       HAL2    486   POPC   H13S   4809       0.09      1.008
 18970       CTL2    486   POPC   C214   4810      -0.18     12.011
 18971       HAL2    486   POPC   H14R   4810       0.09      1.008
 18972       HAL2    486   POPC   H14S   4810       0.09      1.008
 18973       CTL2    486   POPC   C215   4811      -0.18     12.011
 18974       HAL2    486   POPC   H15R   4811       0.09      1.008
 18975       HAL2    486   POPC   H15S   4811       0.09      1.008
 18976       CTL2    486   POPC   C216   4812      -0.18     12.011
 18977       HAL2    486   POPC   H16R   4812       0.09      1.008
 18978       HAL2    486   POPC   H16S   4812       0.09      1.008
 18979       CTL2    486   POPC   C217   4813      -0.18     12.011
 18980       HAL2    486   POPC   H17R   4813       0.09      1.008
 18981       HAL2    486   POPC   H17S   4813       0.09      1.008
 18982       CTL3    486   POPC   C218   4814      -0.27     12.011
 18983       HAL3    486   POPC   H18R   4814       0.09      1.008
 18984       HAL3    486   POPC   H18S   4814       0.09      1.008
 18985       HAL3    486   POPC   H18T   4814       0.09      1.008
 18986       CTL2    486   POPC    C33   4815      -0.18     12.011
 18987       HAL2    486   POPC    H3X   4815       0.09      1.008
 18988       HAL2    486   POPC    H3Y   4815       0.09      1.008
 18989       CTL2    486   POPC    C34   4816      -0.18     12.011
 18990       HAL2    486   POPC    H4X   4816       0.09      1.008
 18991       HAL2    486   POPC    H4Y   4816       0.09      1.008
 18992       CTL2    486   POPC    C35   4817      -0.18     12.011
 18993       HAL2    486   POPC    H5X   4817       0.09      1.008
 18994       HAL2    486   POPC    H5Y   4817       0.09      1.008
 18995       CTL2    486   POPC    C36   4818      -0.18     12.011
 18996       HAL2    486   POPC    H6X   4818       0.09      1.008
 18997       HAL2    486   POPC    H6Y   4818       0.09      1.008
 18998       CTL2    486   POPC    C37   4819      -0.18     12.011
 18999       HAL2    486   POPC    H7X   4819       0.09      1.008
 19000       HAL2    486   POPC    H7Y   4819       0.09      1.008
 19001       CTL2    486   POPC    C38   4820      -0.18     12.011
 19002       HAL2    486   POPC    H8X   4820       0.09      1.008
 19003       HAL2    486   POPC    H8Y   4820       0.09      1.008
 19004       CTL2    486   POPC    C39   4821      -0.18     12.011
 19005       HAL2    486   POPC    H9X   4821       0.09      1.008
 19006       HAL2    486   POPC    H9Y   4821       0.09      1.008
 19007       CTL2    486   POPC   C310   4822      -0.18     12.011
 19008       HAL2    486   POPC   H10X   4822       0.09      1.008
 19009       HAL2    486   POPC   H10Y   4822       0.09      1.008
 19010       CTL2    486   POPC   C311   4823      -0.18     12.011
 19011       HAL2    486   POPC   H11X   4823       0.09      1.008
 19012       HAL2    486   POPC   H11Y   4823       0.09      1.008
 19013       CTL2    486   POPC   C312   4824      -0.18     12.011
 19014       HAL2    486   POPC   H12X   4824       0.09      1.008
 19015       HAL2    486   POPC   H12Y   4824       0.09      1.008
 19016       CTL2    486   POPC   C313   4825      -0.18     12.011
 19017       HAL2    486   POPC   H13X   4825       0.09      1.008
 19018       HAL2    486   POPC   H13Y   4825       0.09      1.008
 19019       CTL2    486   POPC   C314   4826      -0.18     12.011
 19020       HAL2    486   POPC   H14X   4826       0.09      1.008
 19021       HAL2    486   POPC   H14Y   4826       0.09      1.008
 19022       CTL2    486   POPC   C315   4827      -0.18     12.011
 19023       HAL2    486   POPC   H15X   4827       0.09      1.008
 19024       HAL2    486   POPC   H15Y   4827       0.09      1.008
 19025       CTL3    486   POPC   C316   4828      -0.27     12.011
 19026       HAL3    486   POPC   H16X   4828       0.09      1.008
 19027       HAL3    486   POPC   H16Y   4828       0.09      1.008
 19028       HAL3    486   POPC   H16Z   4828       0.09      1.008   ; qtot 0
; residue 487 POPC rtp POPC q  0.0
 19029        NTL    487   POPC      N   4829       -0.6     14.007
 19030       CTL2    487   POPC    C12   4829       -0.1     12.011
 19031         HL    487   POPC   H12A   4829       0.25      1.008
 19032         HL    487   POPC   H12B   4829       0.25      1.008
 19033       CTL5    487   POPC    C13   4829      -0.35     12.011
 19034         HL    487   POPC   H13A   4829       0.25      1.008
 19035         HL    487   POPC   H13B   4829       0.25      1.008
 19036         HL    487   POPC   H13C   4829       0.25      1.008
 19037       CTL5    487   POPC    C14   4829      -0.35     12.011
 19038         HL    487   POPC   H14A   4829       0.25      1.008
 19039         HL    487   POPC   H14B   4829       0.25      1.008
 19040         HL    487   POPC   H14C   4829       0.25      1.008
 19041       CTL5    487   POPC    C15   4829      -0.35     12.011
 19042         HL    487   POPC   H15A   4829       0.25      1.008
 19043         HL    487   POPC   H15B   4829       0.25      1.008
 19044         HL    487   POPC   H15C   4829       0.25      1.008
 19045       CTL2    487   POPC    C11   4830      -0.08     12.011
 19046       HAL2    487   POPC   H11A   4830       0.09      1.008
 19047       HAL2    487   POPC   H11B   4830       0.09      1.008
 19048         PL    487   POPC      P   4830        1.5     30.974
 19049        O2L    487   POPC    O13   4830      -0.78    15.9994
 19050        O2L    487   POPC    O14   4830      -0.78    15.9994
 19051       OSLP    487   POPC    O12   4830      -0.57    15.9994
 19052       OSLP    487   POPC    O11   4830      -0.57    15.9994
 19053       CTL2    487   POPC     C1   4830      -0.08     12.011
 19054       HAL2    487   POPC     HA   4830       0.09      1.008
 19055       HAL2    487   POPC     HB   4830       0.09      1.008
 19056       CTL1    487   POPC     C2   4831       0.17     12.011
 19057       HAL1    487   POPC     HS   4831       0.09      1.008
 19058        OSL    487   POPC    O21   4831      -0.49    15.9994
 19059         CL    487   POPC    C21   4831        0.9     12.011
 19060        OBL    487   POPC    O22   4831      -0.63    15.9994
 19061       CTL2    487   POPC    C22   4831      -0.22     12.011
 19062       HAL2    487   POPC    H2R   4831       0.09      1.008
 19063       HAL2    487   POPC    H2S   4831       0.09      1.008
 19064       CTL2    487   POPC     C3   4832       0.08     12.011
 19065       HAL2    487   POPC     HX   4832       0.09      1.008
 19066       HAL2    487   POPC     HY   4832       0.09      1.008
 19067        OSL    487   POPC    O31   4832      -0.49    15.9994
 19068         CL    487   POPC    C31   4832        0.9     12.011
 19069        OBL    487   POPC    O32   4832      -0.63    15.9994
 19070       CTL2    487   POPC    C32   4832      -0.22     12.011
 19071       HAL2    487   POPC    H2X   4832       0.09      1.008
 19072       HAL2    487   POPC    H2Y   4832       0.09      1.008
 19073       CTL2    487   POPC    C23   4833      -0.18     12.011
 19074       HAL2    487   POPC    H3R   4833       0.09      1.008
 19075       HAL2    487   POPC    H3S   4833       0.09      1.008
 19076       CTL2    487   POPC    C24   4834      -0.18     12.011
 19077       HAL2    487   POPC    H4R   4834       0.09      1.008
 19078       HAL2    487   POPC    H4S   4834       0.09      1.008
 19079       CTL2    487   POPC    C25   4835      -0.18     12.011
 19080       HAL2    487   POPC    H5R   4835       0.09      1.008
 19081       HAL2    487   POPC    H5S   4835       0.09      1.008
 19082       CTL2    487   POPC    C26   4836      -0.18     12.011
 19083       HAL2    487   POPC    H6R   4836       0.09      1.008
 19084       HAL2    487   POPC    H6S   4836       0.09      1.008
 19085       CTL2    487   POPC    C27   4837      -0.18     12.011
 19086       HAL2    487   POPC    H7R   4837       0.09      1.008
 19087       HAL2    487   POPC    H7S   4837       0.09      1.008
 19088       CTL2    487   POPC    C28   4838      -0.18     12.011
 19089       HAL2    487   POPC    H8R   4838       0.09      1.008
 19090       HAL2    487   POPC    H8S   4838       0.09      1.008
 19091       CEL1    487   POPC    C29   4839      -0.15     12.011
 19092       HEL1    487   POPC    H91   4839       0.15      1.008
 19093       CEL1    487   POPC   C210   4840      -0.15     12.011
 19094       HEL1    487   POPC   H101   4840       0.15      1.008
 19095       CTL2    487   POPC   C211   4841      -0.18     12.011
 19096       HAL2    487   POPC   H11R   4841       0.09      1.008
 19097       HAL2    487   POPC   H11S   4841       0.09      1.008
 19098       CTL2    487   POPC   C212   4842      -0.18     12.011
 19099       HAL2    487   POPC   H12R   4842       0.09      1.008
 19100       HAL2    487   POPC   H12S   4842       0.09      1.008
 19101       CTL2    487   POPC   C213   4843      -0.18     12.011
 19102       HAL2    487   POPC   H13R   4843       0.09      1.008
 19103       HAL2    487   POPC   H13S   4843       0.09      1.008
 19104       CTL2    487   POPC   C214   4844      -0.18     12.011
 19105       HAL2    487   POPC   H14R   4844       0.09      1.008
 19106       HAL2    487   POPC   H14S   4844       0.09      1.008
 19107       CTL2    487   POPC   C215   4845      -0.18     12.011
 19108       HAL2    487   POPC   H15R   4845       0.09      1.008
 19109       HAL2    487   POPC   H15S   4845       0.09      1.008
 19110       CTL2    487   POPC   C216   4846      -0.18     12.011
 19111       HAL2    487   POPC   H16R   4846       0.09      1.008
 19112       HAL2    487   POPC   H16S   4846       0.09      1.008
 19113       CTL2    487   POPC   C217   4847      -0.18     12.011
 19114       HAL2    487   POPC   H17R   4847       0.09      1.008
 19115       HAL2    487   POPC   H17S   4847       0.09      1.008
 19116       CTL3    487   POPC   C218   4848      -0.27     12.011
 19117       HAL3    487   POPC   H18R   4848       0.09      1.008
 19118       HAL3    487   POPC   H18S   4848       0.09      1.008
 19119       HAL3    487   POPC   H18T   4848       0.09      1.008
 19120       CTL2    487   POPC    C33   4849      -0.18     12.011
 19121       HAL2    487   POPC    H3X   4849       0.09      1.008
 19122       HAL2    487   POPC    H3Y   4849       0.09      1.008
 19123       CTL2    487   POPC    C34   4850      -0.18     12.011
 19124       HAL2    487   POPC    H4X   4850       0.09      1.008
 19125       HAL2    487   POPC    H4Y   4850       0.09      1.008
 19126       CTL2    487   POPC    C35   4851      -0.18     12.011
 19127       HAL2    487   POPC    H5X   4851       0.09      1.008
 19128       HAL2    487   POPC    H5Y   4851       0.09      1.008
 19129       CTL2    487   POPC    C36   4852      -0.18     12.011
 19130       HAL2    487   POPC    H6X   4852       0.09      1.008
 19131       HAL2    487   POPC    H6Y   4852       0.09      1.008
 19132       CTL2    487   POPC    C37   4853      -0.18     12.011
 19133       HAL2    487   POPC    H7X   4853       0.09      1.008
 19134       HAL2    487   POPC    H7Y   4853       0.09      1.008
 19135       CTL2    487   POPC    C38   4854      -0.18     12.011
 19136       HAL2    487   POPC    H8X   4854       0.09      1.008
 19137       HAL2    487   POPC    H8Y   4854       0.09      1.008
 19138       CTL2    487   POPC    C39   4855      -0.18     12.011
 19139       HAL2    487   POPC    H9X   4855       0.09      1.008
 19140       HAL2    487   POPC    H9Y   4855       0.09      1.008
 19141       CTL2    487   POPC   C310   4856      -0.18     12.011
 19142       HAL2    487   POPC   H10X   4856       0.09      1.008
 19143       HAL2    487   POPC   H10Y   4856       0.09      1.008
 19144       CTL2    487   POPC   C311   4857      -0.18     12.011
 19145       HAL2    487   POPC   H11X   4857       0.09      1.008
 19146       HAL2    487   POPC   H11Y   4857       0.09      1.008
 19147       CTL2    487   POPC   C312   4858      -0.18     12.011
 19148       HAL2    487   POPC   H12X   4858       0.09      1.008
 19149       HAL2    487   POPC   H12Y   4858       0.09      1.008
 19150       CTL2    487   POPC   C313   4859      -0.18     12.011
 19151       HAL2    487   POPC   H13X   4859       0.09      1.008
 19152       HAL2    487   POPC   H13Y   4859       0.09      1.008
 19153       CTL2    487   POPC   C314   4860      -0.18     12.011
 19154       HAL2    487   POPC   H14X   4860       0.09      1.008
 19155       HAL2    487   POPC   H14Y   4860       0.09      1.008
 19156       CTL2    487   POPC   C315   4861      -0.18     12.011
 19157       HAL2    487   POPC   H15X   4861       0.09      1.008
 19158       HAL2    487   POPC   H15Y   4861       0.09      1.008
 19159       CTL3    487   POPC   C316   4862      -0.27     12.011
 19160       HAL3    487   POPC   H16X   4862       0.09      1.008
 19161       HAL3    487   POPC   H16Y   4862       0.09      1.008
 19162       HAL3    487   POPC   H16Z   4862       0.09      1.008   ; qtot 0
; residue 488 POPC rtp POPC q  0.0
 19163        NTL    488   POPC      N   4863       -0.6     14.007
 19164       CTL2    488   POPC    C12   4863       -0.1     12.011
 19165         HL    488   POPC   H12A   4863       0.25      1.008
 19166         HL    488   POPC   H12B   4863       0.25      1.008
 19167       CTL5    488   POPC    C13   4863      -0.35     12.011
 19168         HL    488   POPC   H13A   4863       0.25      1.008
 19169         HL    488   POPC   H13B   4863       0.25      1.008
 19170         HL    488   POPC   H13C   4863       0.25      1.008
 19171       CTL5    488   POPC    C14   4863      -0.35     12.011
 19172         HL    488   POPC   H14A   4863       0.25      1.008
 19173         HL    488   POPC   H14B   4863       0.25      1.008
 19174         HL    488   POPC   H14C   4863       0.25      1.008
 19175       CTL5    488   POPC    C15   4863      -0.35     12.011
 19176         HL    488   POPC   H15A   4863       0.25      1.008
 19177         HL    488   POPC   H15B   4863       0.25      1.008
 19178         HL    488   POPC   H15C   4863       0.25      1.008
 19179       CTL2    488   POPC    C11   4864      -0.08     12.011
 19180       HAL2    488   POPC   H11A   4864       0.09      1.008
 19181       HAL2    488   POPC   H11B   4864       0.09      1.008
 19182         PL    488   POPC      P   4864        1.5     30.974
 19183        O2L    488   POPC    O13   4864      -0.78    15.9994
 19184        O2L    488   POPC    O14   4864      -0.78    15.9994
 19185       OSLP    488   POPC    O12   4864      -0.57    15.9994
 19186       OSLP    488   POPC    O11   4864      -0.57    15.9994
 19187       CTL2    488   POPC     C1   4864      -0.08     12.011
 19188       HAL2    488   POPC     HA   4864       0.09      1.008
 19189       HAL2    488   POPC     HB   4864       0.09      1.008
 19190       CTL1    488   POPC     C2   4865       0.17     12.011
 19191       HAL1    488   POPC     HS   4865       0.09      1.008
 19192        OSL    488   POPC    O21   4865      -0.49    15.9994
 19193         CL    488   POPC    C21   4865        0.9     12.011
 19194        OBL    488   POPC    O22   4865      -0.63    15.9994
 19195       CTL2    488   POPC    C22   4865      -0.22     12.011
 19196       HAL2    488   POPC    H2R   4865       0.09      1.008
 19197       HAL2    488   POPC    H2S   4865       0.09      1.008
 19198       CTL2    488   POPC     C3   4866       0.08     12.011
 19199       HAL2    488   POPC     HX   4866       0.09      1.008
 19200       HAL2    488   POPC     HY   4866       0.09      1.008
 19201        OSL    488   POPC    O31   4866      -0.49    15.9994
 19202         CL    488   POPC    C31   4866        0.9     12.011
 19203        OBL    488   POPC    O32   4866      -0.63    15.9994
 19204       CTL2    488   POPC    C32   4866      -0.22     12.011
 19205       HAL2    488   POPC    H2X   4866       0.09      1.008
 19206       HAL2    488   POPC    H2Y   4866       0.09      1.008
 19207       CTL2    488   POPC    C23   4867      -0.18     12.011
 19208       HAL2    488   POPC    H3R   4867       0.09      1.008
 19209       HAL2    488   POPC    H3S   4867       0.09      1.008
 19210       CTL2    488   POPC    C24   4868      -0.18     12.011
 19211       HAL2    488   POPC    H4R   4868       0.09      1.008
 19212       HAL2    488   POPC    H4S   4868       0.09      1.008
 19213       CTL2    488   POPC    C25   4869      -0.18     12.011
 19214       HAL2    488   POPC    H5R   4869       0.09      1.008
 19215       HAL2    488   POPC    H5S   4869       0.09      1.008
 19216       CTL2    488   POPC    C26   4870      -0.18     12.011
 19217       HAL2    488   POPC    H6R   4870       0.09      1.008
 19218       HAL2    488   POPC    H6S   4870       0.09      1.008
 19219       CTL2    488   POPC    C27   4871      -0.18     12.011
 19220       HAL2    488   POPC    H7R   4871       0.09      1.008
 19221       HAL2    488   POPC    H7S   4871       0.09      1.008
 19222       CTL2    488   POPC    C28   4872      -0.18     12.011
 19223       HAL2    488   POPC    H8R   4872       0.09      1.008
 19224       HAL2    488   POPC    H8S   4872       0.09      1.008
 19225       CEL1    488   POPC    C29   4873      -0.15     12.011
 19226       HEL1    488   POPC    H91   4873       0.15      1.008
 19227       CEL1    488   POPC   C210   4874      -0.15     12.011
 19228       HEL1    488   POPC   H101   4874       0.15      1.008
 19229       CTL2    488   POPC   C211   4875      -0.18     12.011
 19230       HAL2    488   POPC   H11R   4875       0.09      1.008
 19231       HAL2    488   POPC   H11S   4875       0.09      1.008
 19232       CTL2    488   POPC   C212   4876      -0.18     12.011
 19233       HAL2    488   POPC   H12R   4876       0.09      1.008
 19234       HAL2    488   POPC   H12S   4876       0.09      1.008
 19235       CTL2    488   POPC   C213   4877      -0.18     12.011
 19236       HAL2    488   POPC   H13R   4877       0.09      1.008
 19237       HAL2    488   POPC   H13S   4877       0.09      1.008
 19238       CTL2    488   POPC   C214   4878      -0.18     12.011
 19239       HAL2    488   POPC   H14R   4878       0.09      1.008
 19240       HAL2    488   POPC   H14S   4878       0.09      1.008
 19241       CTL2    488   POPC   C215   4879      -0.18     12.011
 19242       HAL2    488   POPC   H15R   4879       0.09      1.008
 19243       HAL2    488   POPC   H15S   4879       0.09      1.008
 19244       CTL2    488   POPC   C216   4880      -0.18     12.011
 19245       HAL2    488   POPC   H16R   4880       0.09      1.008
 19246       HAL2    488   POPC   H16S   4880       0.09      1.008
 19247       CTL2    488   POPC   C217   4881      -0.18     12.011
 19248       HAL2    488   POPC   H17R   4881       0.09      1.008
 19249       HAL2    488   POPC   H17S   4881       0.09      1.008
 19250       CTL3    488   POPC   C218   4882      -0.27     12.011
 19251       HAL3    488   POPC   H18R   4882       0.09      1.008
 19252       HAL3    488   POPC   H18S   4882       0.09      1.008
 19253       HAL3    488   POPC   H18T   4882       0.09      1.008
 19254       CTL2    488   POPC    C33   4883      -0.18     12.011
 19255       HAL2    488   POPC    H3X   4883       0.09      1.008
 19256       HAL2    488   POPC    H3Y   4883       0.09      1.008
 19257       CTL2    488   POPC    C34   4884      -0.18     12.011
 19258       HAL2    488   POPC    H4X   4884       0.09      1.008
 19259       HAL2    488   POPC    H4Y   4884       0.09      1.008
 19260       CTL2    488   POPC    C35   4885      -0.18     12.011
 19261       HAL2    488   POPC    H5X   4885       0.09      1.008
 19262       HAL2    488   POPC    H5Y   4885       0.09      1.008
 19263       CTL2    488   POPC    C36   4886      -0.18     12.011
 19264       HAL2    488   POPC    H6X   4886       0.09      1.008
 19265       HAL2    488   POPC    H6Y   4886       0.09      1.008
 19266       CTL2    488   POPC    C37   4887      -0.18     12.011
 19267       HAL2    488   POPC    H7X   4887       0.09      1.008
 19268       HAL2    488   POPC    H7Y   4887       0.09      1.008
 19269       CTL2    488   POPC    C38   4888      -0.18     12.011
 19270       HAL2    488   POPC    H8X   4888       0.09      1.008
 19271       HAL2    488   POPC    H8Y   4888       0.09      1.008
 19272       CTL2    488   POPC    C39   4889      -0.18     12.011
 19273       HAL2    488   POPC    H9X   4889       0.09      1.008
 19274       HAL2    488   POPC    H9Y   4889       0.09      1.008
 19275       CTL2    488   POPC   C310   4890      -0.18     12.011
 19276       HAL2    488   POPC   H10X   4890       0.09      1.008
 19277       HAL2    488   POPC   H10Y   4890       0.09      1.008
 19278       CTL2    488   POPC   C311   4891      -0.18     12.011
 19279       HAL2    488   POPC   H11X   4891       0.09      1.008
 19280       HAL2    488   POPC   H11Y   4891       0.09      1.008
 19281       CTL2    488   POPC   C312   4892      -0.18     12.011
 19282       HAL2    488   POPC   H12X   4892       0.09      1.008
 19283       HAL2    488   POPC   H12Y   4892       0.09      1.008
 19284       CTL2    488   POPC   C313   4893      -0.18     12.011
 19285       HAL2    488   POPC   H13X   4893       0.09      1.008
 19286       HAL2    488   POPC   H13Y   4893       0.09      1.008
 19287       CTL2    488   POPC   C314   4894      -0.18     12.011
 19288       HAL2    488   POPC   H14X   4894       0.09      1.008
 19289       HAL2    488   POPC   H14Y   4894       0.09      1.008
 19290       CTL2    488   POPC   C315   4895      -0.18     12.011
 19291       HAL2    488   POPC   H15X   4895       0.09      1.008
 19292       HAL2    488   POPC   H15Y   4895       0.09      1.008
 19293       CTL3    488   POPC   C316   4896      -0.27     12.011
 19294       HAL3    488   POPC   H16X   4896       0.09      1.008
 19295       HAL3    488   POPC   H16Y   4896       0.09      1.008
 19296       HAL3    488   POPC   H16Z   4896       0.09      1.008   ; qtot 0
; residue 489 POPC rtp POPC q  0.0
 19297        NTL    489   POPC      N   4897       -0.6     14.007
 19298       CTL2    489   POPC    C12   4897       -0.1     12.011
 19299         HL    489   POPC   H12A   4897       0.25      1.008
 19300         HL    489   POPC   H12B   4897       0.25      1.008
 19301       CTL5    489   POPC    C13   4897      -0.35     12.011
 19302         HL    489   POPC   H13A   4897       0.25      1.008
 19303         HL    489   POPC   H13B   4897       0.25      1.008
 19304         HL    489   POPC   H13C   4897       0.25      1.008
 19305       CTL5    489   POPC    C14   4897      -0.35     12.011
 19306         HL    489   POPC   H14A   4897       0.25      1.008
 19307         HL    489   POPC   H14B   4897       0.25      1.008
 19308         HL    489   POPC   H14C   4897       0.25      1.008
 19309       CTL5    489   POPC    C15   4897      -0.35     12.011
 19310         HL    489   POPC   H15A   4897       0.25      1.008
 19311         HL    489   POPC   H15B   4897       0.25      1.008
 19312         HL    489   POPC   H15C   4897       0.25      1.008
 19313       CTL2    489   POPC    C11   4898      -0.08     12.011
 19314       HAL2    489   POPC   H11A   4898       0.09      1.008
 19315       HAL2    489   POPC   H11B   4898       0.09      1.008
 19316         PL    489   POPC      P   4898        1.5     30.974
 19317        O2L    489   POPC    O13   4898      -0.78    15.9994
 19318        O2L    489   POPC    O14   4898      -0.78    15.9994
 19319       OSLP    489   POPC    O12   4898      -0.57    15.9994
 19320       OSLP    489   POPC    O11   4898      -0.57    15.9994
 19321       CTL2    489   POPC     C1   4898      -0.08     12.011
 19322       HAL2    489   POPC     HA   4898       0.09      1.008
 19323       HAL2    489   POPC     HB   4898       0.09      1.008
 19324       CTL1    489   POPC     C2   4899       0.17     12.011
 19325       HAL1    489   POPC     HS   4899       0.09      1.008
 19326        OSL    489   POPC    O21   4899      -0.49    15.9994
 19327         CL    489   POPC    C21   4899        0.9     12.011
 19328        OBL    489   POPC    O22   4899      -0.63    15.9994
 19329       CTL2    489   POPC    C22   4899      -0.22     12.011
 19330       HAL2    489   POPC    H2R   4899       0.09      1.008
 19331       HAL2    489   POPC    H2S   4899       0.09      1.008
 19332       CTL2    489   POPC     C3   4900       0.08     12.011
 19333       HAL2    489   POPC     HX   4900       0.09      1.008
 19334       HAL2    489   POPC     HY   4900       0.09      1.008
 19335        OSL    489   POPC    O31   4900      -0.49    15.9994
 19336         CL    489   POPC    C31   4900        0.9     12.011
 19337        OBL    489   POPC    O32   4900      -0.63    15.9994
 19338       CTL2    489   POPC    C32   4900      -0.22     12.011
 19339       HAL2    489   POPC    H2X   4900       0.09      1.008
 19340       HAL2    489   POPC    H2Y   4900       0.09      1.008
 19341       CTL2    489   POPC    C23   4901      -0.18     12.011
 19342       HAL2    489   POPC    H3R   4901       0.09      1.008
 19343       HAL2    489   POPC    H3S   4901       0.09      1.008
 19344       CTL2    489   POPC    C24   4902      -0.18     12.011
 19345       HAL2    489   POPC    H4R   4902       0.09      1.008
 19346       HAL2    489   POPC    H4S   4902       0.09      1.008
 19347       CTL2    489   POPC    C25   4903      -0.18     12.011
 19348       HAL2    489   POPC    H5R   4903       0.09      1.008
 19349       HAL2    489   POPC    H5S   4903       0.09      1.008
 19350       CTL2    489   POPC    C26   4904      -0.18     12.011
 19351       HAL2    489   POPC    H6R   4904       0.09      1.008
 19352       HAL2    489   POPC    H6S   4904       0.09      1.008
 19353       CTL2    489   POPC    C27   4905      -0.18     12.011
 19354       HAL2    489   POPC    H7R   4905       0.09      1.008
 19355       HAL2    489   POPC    H7S   4905       0.09      1.008
 19356       CTL2    489   POPC    C28   4906      -0.18     12.011
 19357       HAL2    489   POPC    H8R   4906       0.09      1.008
 19358       HAL2    489   POPC    H8S   4906       0.09      1.008
 19359       CEL1    489   POPC    C29   4907      -0.15     12.011
 19360       HEL1    489   POPC    H91   4907       0.15      1.008
 19361       CEL1    489   POPC   C210   4908      -0.15     12.011
 19362       HEL1    489   POPC   H101   4908       0.15      1.008
 19363       CTL2    489   POPC   C211   4909      -0.18     12.011
 19364       HAL2    489   POPC   H11R   4909       0.09      1.008
 19365       HAL2    489   POPC   H11S   4909       0.09      1.008
 19366       CTL2    489   POPC   C212   4910      -0.18     12.011
 19367       HAL2    489   POPC   H12R   4910       0.09      1.008
 19368       HAL2    489   POPC   H12S   4910       0.09      1.008
 19369       CTL2    489   POPC   C213   4911      -0.18     12.011
 19370       HAL2    489   POPC   H13R   4911       0.09      1.008
 19371       HAL2    489   POPC   H13S   4911       0.09      1.008
 19372       CTL2    489   POPC   C214   4912      -0.18     12.011
 19373       HAL2    489   POPC   H14R   4912       0.09      1.008
 19374       HAL2    489   POPC   H14S   4912       0.09      1.008
 19375       CTL2    489   POPC   C215   4913      -0.18     12.011
 19376       HAL2    489   POPC   H15R   4913       0.09      1.008
 19377       HAL2    489   POPC   H15S   4913       0.09      1.008
 19378       CTL2    489   POPC   C216   4914      -0.18     12.011
 19379       HAL2    489   POPC   H16R   4914       0.09      1.008
 19380       HAL2    489   POPC   H16S   4914       0.09      1.008
 19381       CTL2    489   POPC   C217   4915      -0.18     12.011
 19382       HAL2    489   POPC   H17R   4915       0.09      1.008
 19383       HAL2    489   POPC   H17S   4915       0.09      1.008
 19384       CTL3    489   POPC   C218   4916      -0.27     12.011
 19385       HAL3    489   POPC   H18R   4916       0.09      1.008
 19386       HAL3    489   POPC   H18S   4916       0.09      1.008
 19387       HAL3    489   POPC   H18T   4916       0.09      1.008
 19388       CTL2    489   POPC    C33   4917      -0.18     12.011
 19389       HAL2    489   POPC    H3X   4917       0.09      1.008
 19390       HAL2    489   POPC    H3Y   4917       0.09      1.008
 19391       CTL2    489   POPC    C34   4918      -0.18     12.011
 19392       HAL2    489   POPC    H4X   4918       0.09      1.008
 19393       HAL2    489   POPC    H4Y   4918       0.09      1.008
 19394       CTL2    489   POPC    C35   4919      -0.18     12.011
 19395       HAL2    489   POPC    H5X   4919       0.09      1.008
 19396       HAL2    489   POPC    H5Y   4919       0.09      1.008
 19397       CTL2    489   POPC    C36   4920      -0.18     12.011
 19398       HAL2    489   POPC    H6X   4920       0.09      1.008
 19399       HAL2    489   POPC    H6Y   4920       0.09      1.008
 19400       CTL2    489   POPC    C37   4921      -0.18     12.011
 19401       HAL2    489   POPC    H7X   4921       0.09      1.008
 19402       HAL2    489   POPC    H7Y   4921       0.09      1.008
 19403       CTL2    489   POPC    C38   4922      -0.18     12.011
 19404       HAL2    489   POPC    H8X   4922       0.09      1.008
 19405       HAL2    489   POPC    H8Y   4922       0.09      1.008
 19406       CTL2    489   POPC    C39   4923      -0.18     12.011
 19407       HAL2    489   POPC    H9X   4923       0.09      1.008
 19408       HAL2    489   POPC    H9Y   4923       0.09      1.008
 19409       CTL2    489   POPC   C310   4924      -0.18     12.011
 19410       HAL2    489   POPC   H10X   4924       0.09      1.008
 19411       HAL2    489   POPC   H10Y   4924       0.09      1.008
 19412       CTL2    489   POPC   C311   4925      -0.18     12.011
 19413       HAL2    489   POPC   H11X   4925       0.09      1.008
 19414       HAL2    489   POPC   H11Y   4925       0.09      1.008
 19415       CTL2    489   POPC   C312   4926      -0.18     12.011
 19416       HAL2    489   POPC   H12X   4926       0.09      1.008
 19417       HAL2    489   POPC   H12Y   4926       0.09      1.008
 19418       CTL2    489   POPC   C313   4927      -0.18     12.011
 19419       HAL2    489   POPC   H13X   4927       0.09      1.008
 19420       HAL2    489   POPC   H13Y   4927       0.09      1.008
 19421       CTL2    489   POPC   C314   4928      -0.18     12.011
 19422       HAL2    489   POPC   H14X   4928       0.09      1.008
 19423       HAL2    489   POPC   H14Y   4928       0.09      1.008
 19424       CTL2    489   POPC   C315   4929      -0.18     12.011
 19425       HAL2    489   POPC   H15X   4929       0.09      1.008
 19426       HAL2    489   POPC   H15Y   4929       0.09      1.008
 19427       CTL3    489   POPC   C316   4930      -0.27     12.011
 19428       HAL3    489   POPC   H16X   4930       0.09      1.008
 19429       HAL3    489   POPC   H16Y   4930       0.09      1.008
 19430       HAL3    489   POPC   H16Z   4930       0.09      1.008   ; qtot 0
; residue 490 POPC rtp POPC q  0.0
 19431        NTL    490   POPC      N   4931       -0.6     14.007
 19432       CTL2    490   POPC    C12   4931       -0.1     12.011
 19433         HL    490   POPC   H12A   4931       0.25      1.008
 19434         HL    490   POPC   H12B   4931       0.25      1.008
 19435       CTL5    490   POPC    C13   4931      -0.35     12.011
 19436         HL    490   POPC   H13A   4931       0.25      1.008
 19437         HL    490   POPC   H13B   4931       0.25      1.008
 19438         HL    490   POPC   H13C   4931       0.25      1.008
 19439       CTL5    490   POPC    C14   4931      -0.35     12.011
 19440         HL    490   POPC   H14A   4931       0.25      1.008
 19441         HL    490   POPC   H14B   4931       0.25      1.008
 19442         HL    490   POPC   H14C   4931       0.25      1.008
 19443       CTL5    490   POPC    C15   4931      -0.35     12.011
 19444         HL    490   POPC   H15A   4931       0.25      1.008
 19445         HL    490   POPC   H15B   4931       0.25      1.008
 19446         HL    490   POPC   H15C   4931       0.25      1.008
 19447       CTL2    490   POPC    C11   4932      -0.08     12.011
 19448       HAL2    490   POPC   H11A   4932       0.09      1.008
 19449       HAL2    490   POPC   H11B   4932       0.09      1.008
 19450         PL    490   POPC      P   4932        1.5     30.974
 19451        O2L    490   POPC    O13   4932      -0.78    15.9994
 19452        O2L    490   POPC    O14   4932      -0.78    15.9994
 19453       OSLP    490   POPC    O12   4932      -0.57    15.9994
 19454       OSLP    490   POPC    O11   4932      -0.57    15.9994
 19455       CTL2    490   POPC     C1   4932      -0.08     12.011
 19456       HAL2    490   POPC     HA   4932       0.09      1.008
 19457       HAL2    490   POPC     HB   4932       0.09      1.008
 19458       CTL1    490   POPC     C2   4933       0.17     12.011
 19459       HAL1    490   POPC     HS   4933       0.09      1.008
 19460        OSL    490   POPC    O21   4933      -0.49    15.9994
 19461         CL    490   POPC    C21   4933        0.9     12.011
 19462        OBL    490   POPC    O22   4933      -0.63    15.9994
 19463       CTL2    490   POPC    C22   4933      -0.22     12.011
 19464       HAL2    490   POPC    H2R   4933       0.09      1.008
 19465       HAL2    490   POPC    H2S   4933       0.09      1.008
 19466       CTL2    490   POPC     C3   4934       0.08     12.011
 19467       HAL2    490   POPC     HX   4934       0.09      1.008
 19468       HAL2    490   POPC     HY   4934       0.09      1.008
 19469        OSL    490   POPC    O31   4934      -0.49    15.9994
 19470         CL    490   POPC    C31   4934        0.9     12.011
 19471        OBL    490   POPC    O32   4934      -0.63    15.9994
 19472       CTL2    490   POPC    C32   4934      -0.22     12.011
 19473       HAL2    490   POPC    H2X   4934       0.09      1.008
 19474       HAL2    490   POPC    H2Y   4934       0.09      1.008
 19475       CTL2    490   POPC    C23   4935      -0.18     12.011
 19476       HAL2    490   POPC    H3R   4935       0.09      1.008
 19477       HAL2    490   POPC    H3S   4935       0.09      1.008
 19478       CTL2    490   POPC    C24   4936      -0.18     12.011
 19479       HAL2    490   POPC    H4R   4936       0.09      1.008
 19480       HAL2    490   POPC    H4S   4936       0.09      1.008
 19481       CTL2    490   POPC    C25   4937      -0.18     12.011
 19482       HAL2    490   POPC    H5R   4937       0.09      1.008
 19483       HAL2    490   POPC    H5S   4937       0.09      1.008
 19484       CTL2    490   POPC    C26   4938      -0.18     12.011
 19485       HAL2    490   POPC    H6R   4938       0.09      1.008
 19486       HAL2    490   POPC    H6S   4938       0.09      1.008
 19487       CTL2    490   POPC    C27   4939      -0.18     12.011
 19488       HAL2    490   POPC    H7R   4939       0.09      1.008
 19489       HAL2    490   POPC    H7S   4939       0.09      1.008
 19490       CTL2    490   POPC    C28   4940      -0.18     12.011
 19491       HAL2    490   POPC    H8R   4940       0.09      1.008
 19492       HAL2    490   POPC    H8S   4940       0.09      1.008
 19493       CEL1    490   POPC    C29   4941      -0.15     12.011
 19494       HEL1    490   POPC    H91   4941       0.15      1.008
 19495       CEL1    490   POPC   C210   4942      -0.15     12.011
 19496       HEL1    490   POPC   H101   4942       0.15      1.008
 19497       CTL2    490   POPC   C211   4943      -0.18     12.011
 19498       HAL2    490   POPC   H11R   4943       0.09      1.008
 19499       HAL2    490   POPC   H11S   4943       0.09      1.008
 19500       CTL2    490   POPC   C212   4944      -0.18     12.011
 19501       HAL2    490   POPC   H12R   4944       0.09      1.008
 19502       HAL2    490   POPC   H12S   4944       0.09      1.008
 19503       CTL2    490   POPC   C213   4945      -0.18     12.011
 19504       HAL2    490   POPC   H13R   4945       0.09      1.008
 19505       HAL2    490   POPC   H13S   4945       0.09      1.008
 19506       CTL2    490   POPC   C214   4946      -0.18     12.011
 19507       HAL2    490   POPC   H14R   4946       0.09      1.008
 19508       HAL2    490   POPC   H14S   4946       0.09      1.008
 19509       CTL2    490   POPC   C215   4947      -0.18     12.011
 19510       HAL2    490   POPC   H15R   4947       0.09      1.008
 19511       HAL2    490   POPC   H15S   4947       0.09      1.008
 19512       CTL2    490   POPC   C216   4948      -0.18     12.011
 19513       HAL2    490   POPC   H16R   4948       0.09      1.008
 19514       HAL2    490   POPC   H16S   4948       0.09      1.008
 19515       CTL2    490   POPC   C217   4949      -0.18     12.011
 19516       HAL2    490   POPC   H17R   4949       0.09      1.008
 19517       HAL2    490   POPC   H17S   4949       0.09      1.008
 19518       CTL3    490   POPC   C218   4950      -0.27     12.011
 19519       HAL3    490   POPC   H18R   4950       0.09      1.008
 19520       HAL3    490   POPC   H18S   4950       0.09      1.008
 19521       HAL3    490   POPC   H18T   4950       0.09      1.008
 19522       CTL2    490   POPC    C33   4951      -0.18     12.011
 19523       HAL2    490   POPC    H3X   4951       0.09      1.008
 19524       HAL2    490   POPC    H3Y   4951       0.09      1.008
 19525       CTL2    490   POPC    C34   4952      -0.18     12.011
 19526       HAL2    490   POPC    H4X   4952       0.09      1.008
 19527       HAL2    490   POPC    H4Y   4952       0.09      1.008
 19528       CTL2    490   POPC    C35   4953      -0.18     12.011
 19529       HAL2    490   POPC    H5X   4953       0.09      1.008
 19530       HAL2    490   POPC    H5Y   4953       0.09      1.008
 19531       CTL2    490   POPC    C36   4954      -0.18     12.011
 19532       HAL2    490   POPC    H6X   4954       0.09      1.008
 19533       HAL2    490   POPC    H6Y   4954       0.09      1.008
 19534       CTL2    490   POPC    C37   4955      -0.18     12.011
 19535       HAL2    490   POPC    H7X   4955       0.09      1.008
 19536       HAL2    490   POPC    H7Y   4955       0.09      1.008
 19537       CTL2    490   POPC    C38   4956      -0.18     12.011
 19538       HAL2    490   POPC    H8X   4956       0.09      1.008
 19539       HAL2    490   POPC    H8Y   4956       0.09      1.008
 19540       CTL2    490   POPC    C39   4957      -0.18     12.011
 19541       HAL2    490   POPC    H9X   4957       0.09      1.008
 19542       HAL2    490   POPC    H9Y   4957       0.09      1.008
 19543       CTL2    490   POPC   C310   4958      -0.18     12.011
 19544       HAL2    490   POPC   H10X   4958       0.09      1.008
 19545       HAL2    490   POPC   H10Y   4958       0.09      1.008
 19546       CTL2    490   POPC   C311   4959      -0.18     12.011
 19547       HAL2    490   POPC   H11X   4959       0.09      1.008
 19548       HAL2    490   POPC   H11Y   4959       0.09      1.008
 19549       CTL2    490   POPC   C312   4960      -0.18     12.011
 19550       HAL2    490   POPC   H12X   4960       0.09      1.008
 19551       HAL2    490   POPC   H12Y   4960       0.09      1.008
 19552       CTL2    490   POPC   C313   4961      -0.18     12.011
 19553       HAL2    490   POPC   H13X   4961       0.09      1.008
 19554       HAL2    490   POPC   H13Y   4961       0.09      1.008
 19555       CTL2    490   POPC   C314   4962      -0.18     12.011
 19556       HAL2    490   POPC   H14X   4962       0.09      1.008
 19557       HAL2    490   POPC   H14Y   4962       0.09      1.008
 19558       CTL2    490   POPC   C315   4963      -0.18     12.011
 19559       HAL2    490   POPC   H15X   4963       0.09      1.008
 19560       HAL2    490   POPC   H15Y   4963       0.09      1.008
 19561       CTL3    490   POPC   C316   4964      -0.27     12.011
 19562       HAL3    490   POPC   H16X   4964       0.09      1.008
 19563       HAL3    490   POPC   H16Y   4964       0.09      1.008
 19564       HAL3    490   POPC   H16Z   4964       0.09      1.008   ; qtot 0
; residue 491 POPC rtp POPC q  0.0
 19565        NTL    491   POPC      N   4965       -0.6     14.007
 19566       CTL2    491   POPC    C12   4965       -0.1     12.011
 19567         HL    491   POPC   H12A   4965       0.25      1.008
 19568         HL    491   POPC   H12B   4965       0.25      1.008
 19569       CTL5    491   POPC    C13   4965      -0.35     12.011
 19570         HL    491   POPC   H13A   4965       0.25      1.008
 19571         HL    491   POPC   H13B   4965       0.25      1.008
 19572         HL    491   POPC   H13C   4965       0.25      1.008
 19573       CTL5    491   POPC    C14   4965      -0.35     12.011
 19574         HL    491   POPC   H14A   4965       0.25      1.008
 19575         HL    491   POPC   H14B   4965       0.25      1.008
 19576         HL    491   POPC   H14C   4965       0.25      1.008
 19577       CTL5    491   POPC    C15   4965      -0.35     12.011
 19578         HL    491   POPC   H15A   4965       0.25      1.008
 19579         HL    491   POPC   H15B   4965       0.25      1.008
 19580         HL    491   POPC   H15C   4965       0.25      1.008
 19581       CTL2    491   POPC    C11   4966      -0.08     12.011
 19582       HAL2    491   POPC   H11A   4966       0.09      1.008
 19583       HAL2    491   POPC   H11B   4966       0.09      1.008
 19584         PL    491   POPC      P   4966        1.5     30.974
 19585        O2L    491   POPC    O13   4966      -0.78    15.9994
 19586        O2L    491   POPC    O14   4966      -0.78    15.9994
 19587       OSLP    491   POPC    O12   4966      -0.57    15.9994
 19588       OSLP    491   POPC    O11   4966      -0.57    15.9994
 19589       CTL2    491   POPC     C1   4966      -0.08     12.011
 19590       HAL2    491   POPC     HA   4966       0.09      1.008
 19591       HAL2    491   POPC     HB   4966       0.09      1.008
 19592       CTL1    491   POPC     C2   4967       0.17     12.011
 19593       HAL1    491   POPC     HS   4967       0.09      1.008
 19594        OSL    491   POPC    O21   4967      -0.49    15.9994
 19595         CL    491   POPC    C21   4967        0.9     12.011
 19596        OBL    491   POPC    O22   4967      -0.63    15.9994
 19597       CTL2    491   POPC    C22   4967      -0.22     12.011
 19598       HAL2    491   POPC    H2R   4967       0.09      1.008
 19599       HAL2    491   POPC    H2S   4967       0.09      1.008
 19600       CTL2    491   POPC     C3   4968       0.08     12.011
 19601       HAL2    491   POPC     HX   4968       0.09      1.008
 19602       HAL2    491   POPC     HY   4968       0.09      1.008
 19603        OSL    491   POPC    O31   4968      -0.49    15.9994
 19604         CL    491   POPC    C31   4968        0.9     12.011
 19605        OBL    491   POPC    O32   4968      -0.63    15.9994
 19606       CTL2    491   POPC    C32   4968      -0.22     12.011
 19607       HAL2    491   POPC    H2X   4968       0.09      1.008
 19608       HAL2    491   POPC    H2Y   4968       0.09      1.008
 19609       CTL2    491   POPC    C23   4969      -0.18     12.011
 19610       HAL2    491   POPC    H3R   4969       0.09      1.008
 19611       HAL2    491   POPC    H3S   4969       0.09      1.008
 19612       CTL2    491   POPC    C24   4970      -0.18     12.011
 19613       HAL2    491   POPC    H4R   4970       0.09      1.008
 19614       HAL2    491   POPC    H4S   4970       0.09      1.008
 19615       CTL2    491   POPC    C25   4971      -0.18     12.011
 19616       HAL2    491   POPC    H5R   4971       0.09      1.008
 19617       HAL2    491   POPC    H5S   4971       0.09      1.008
 19618       CTL2    491   POPC    C26   4972      -0.18     12.011
 19619       HAL2    491   POPC    H6R   4972       0.09      1.008
 19620       HAL2    491   POPC    H6S   4972       0.09      1.008
 19621       CTL2    491   POPC    C27   4973      -0.18     12.011
 19622       HAL2    491   POPC    H7R   4973       0.09      1.008
 19623       HAL2    491   POPC    H7S   4973       0.09      1.008
 19624       CTL2    491   POPC    C28   4974      -0.18     12.011
 19625       HAL2    491   POPC    H8R   4974       0.09      1.008
 19626       HAL2    491   POPC    H8S   4974       0.09      1.008
 19627       CEL1    491   POPC    C29   4975      -0.15     12.011
 19628       HEL1    491   POPC    H91   4975       0.15      1.008
 19629       CEL1    491   POPC   C210   4976      -0.15     12.011
 19630       HEL1    491   POPC   H101   4976       0.15      1.008
 19631       CTL2    491   POPC   C211   4977      -0.18     12.011
 19632       HAL2    491   POPC   H11R   4977       0.09      1.008
 19633       HAL2    491   POPC   H11S   4977       0.09      1.008
 19634       CTL2    491   POPC   C212   4978      -0.18     12.011
 19635       HAL2    491   POPC   H12R   4978       0.09      1.008
 19636       HAL2    491   POPC   H12S   4978       0.09      1.008
 19637       CTL2    491   POPC   C213   4979      -0.18     12.011
 19638       HAL2    491   POPC   H13R   4979       0.09      1.008
 19639       HAL2    491   POPC   H13S   4979       0.09      1.008
 19640       CTL2    491   POPC   C214   4980      -0.18     12.011
 19641       HAL2    491   POPC   H14R   4980       0.09      1.008
 19642       HAL2    491   POPC   H14S   4980       0.09      1.008
 19643       CTL2    491   POPC   C215   4981      -0.18     12.011
 19644       HAL2    491   POPC   H15R   4981       0.09      1.008
 19645       HAL2    491   POPC   H15S   4981       0.09      1.008
 19646       CTL2    491   POPC   C216   4982      -0.18     12.011
 19647       HAL2    491   POPC   H16R   4982       0.09      1.008
 19648       HAL2    491   POPC   H16S   4982       0.09      1.008
 19649       CTL2    491   POPC   C217   4983      -0.18     12.011
 19650       HAL2    491   POPC   H17R   4983       0.09      1.008
 19651       HAL2    491   POPC   H17S   4983       0.09      1.008
 19652       CTL3    491   POPC   C218   4984      -0.27     12.011
 19653       HAL3    491   POPC   H18R   4984       0.09      1.008
 19654       HAL3    491   POPC   H18S   4984       0.09      1.008
 19655       HAL3    491   POPC   H18T   4984       0.09      1.008
 19656       CTL2    491   POPC    C33   4985      -0.18     12.011
 19657       HAL2    491   POPC    H3X   4985       0.09      1.008
 19658       HAL2    491   POPC    H3Y   4985       0.09      1.008
 19659       CTL2    491   POPC    C34   4986      -0.18     12.011
 19660       HAL2    491   POPC    H4X   4986       0.09      1.008
 19661       HAL2    491   POPC    H4Y   4986       0.09      1.008
 19662       CTL2    491   POPC    C35   4987      -0.18     12.011
 19663       HAL2    491   POPC    H5X   4987       0.09      1.008
 19664       HAL2    491   POPC    H5Y   4987       0.09      1.008
 19665       CTL2    491   POPC    C36   4988      -0.18     12.011
 19666       HAL2    491   POPC    H6X   4988       0.09      1.008
 19667       HAL2    491   POPC    H6Y   4988       0.09      1.008
 19668       CTL2    491   POPC    C37   4989      -0.18     12.011
 19669       HAL2    491   POPC    H7X   4989       0.09      1.008
 19670       HAL2    491   POPC    H7Y   4989       0.09      1.008
 19671       CTL2    491   POPC    C38   4990      -0.18     12.011
 19672       HAL2    491   POPC    H8X   4990       0.09      1.008
 19673       HAL2    491   POPC    H8Y   4990       0.09      1.008
 19674       CTL2    491   POPC    C39   4991      -0.18     12.011
 19675       HAL2    491   POPC    H9X   4991       0.09      1.008
 19676       HAL2    491   POPC    H9Y   4991       0.09      1.008
 19677       CTL2    491   POPC   C310   4992      -0.18     12.011
 19678       HAL2    491   POPC   H10X   4992       0.09      1.008
 19679       HAL2    491   POPC   H10Y   4992       0.09      1.008
 19680       CTL2    491   POPC   C311   4993      -0.18     12.011
 19681       HAL2    491   POPC   H11X   4993       0.09      1.008
 19682       HAL2    491   POPC   H11Y   4993       0.09      1.008
 19683       CTL2    491   POPC   C312   4994      -0.18     12.011
 19684       HAL2    491   POPC   H12X   4994       0.09      1.008
 19685       HAL2    491   POPC   H12Y   4994       0.09      1.008
 19686       CTL2    491   POPC   C313   4995      -0.18     12.011
 19687       HAL2    491   POPC   H13X   4995       0.09      1.008
 19688       HAL2    491   POPC   H13Y   4995       0.09      1.008
 19689       CTL2    491   POPC   C314   4996      -0.18     12.011
 19690       HAL2    491   POPC   H14X   4996       0.09      1.008
 19691       HAL2    491   POPC   H14Y   4996       0.09      1.008
 19692       CTL2    491   POPC   C315   4997      -0.18     12.011
 19693       HAL2    491   POPC   H15X   4997       0.09      1.008
 19694       HAL2    491   POPC   H15Y   4997       0.09      1.008
 19695       CTL3    491   POPC   C316   4998      -0.27     12.011
 19696       HAL3    491   POPC   H16X   4998       0.09      1.008
 19697       HAL3    491   POPC   H16Y   4998       0.09      1.008
 19698       HAL3    491   POPC   H16Z   4998       0.09      1.008   ; qtot 0
; residue 492 POPC rtp POPC q  0.0
 19699        NTL    492   POPC      N   4999       -0.6     14.007
 19700       CTL2    492   POPC    C12   4999       -0.1     12.011
 19701         HL    492   POPC   H12A   4999       0.25      1.008
 19702         HL    492   POPC   H12B   4999       0.25      1.008
 19703       CTL5    492   POPC    C13   4999      -0.35     12.011
 19704         HL    492   POPC   H13A   4999       0.25      1.008
 19705         HL    492   POPC   H13B   4999       0.25      1.008
 19706         HL    492   POPC   H13C   4999       0.25      1.008
 19707       CTL5    492   POPC    C14   4999      -0.35     12.011
 19708         HL    492   POPC   H14A   4999       0.25      1.008
 19709         HL    492   POPC   H14B   4999       0.25      1.008
 19710         HL    492   POPC   H14C   4999       0.25      1.008
 19711       CTL5    492   POPC    C15   4999      -0.35     12.011
 19712         HL    492   POPC   H15A   4999       0.25      1.008
 19713         HL    492   POPC   H15B   4999       0.25      1.008
 19714         HL    492   POPC   H15C   4999       0.25      1.008
 19715       CTL2    492   POPC    C11   5000      -0.08     12.011
 19716       HAL2    492   POPC   H11A   5000       0.09      1.008
 19717       HAL2    492   POPC   H11B   5000       0.09      1.008
 19718         PL    492   POPC      P   5000        1.5     30.974
 19719        O2L    492   POPC    O13   5000      -0.78    15.9994
 19720        O2L    492   POPC    O14   5000      -0.78    15.9994
 19721       OSLP    492   POPC    O12   5000      -0.57    15.9994
 19722       OSLP    492   POPC    O11   5000      -0.57    15.9994
 19723       CTL2    492   POPC     C1   5000      -0.08     12.011
 19724       HAL2    492   POPC     HA   5000       0.09      1.008
 19725       HAL2    492   POPC     HB   5000       0.09      1.008
 19726       CTL1    492   POPC     C2   5001       0.17     12.011
 19727       HAL1    492   POPC     HS   5001       0.09      1.008
 19728        OSL    492   POPC    O21   5001      -0.49    15.9994
 19729         CL    492   POPC    C21   5001        0.9     12.011
 19730        OBL    492   POPC    O22   5001      -0.63    15.9994
 19731       CTL2    492   POPC    C22   5001      -0.22     12.011
 19732       HAL2    492   POPC    H2R   5001       0.09      1.008
 19733       HAL2    492   POPC    H2S   5001       0.09      1.008
 19734       CTL2    492   POPC     C3   5002       0.08     12.011
 19735       HAL2    492   POPC     HX   5002       0.09      1.008
 19736       HAL2    492   POPC     HY   5002       0.09      1.008
 19737        OSL    492   POPC    O31   5002      -0.49    15.9994
 19738         CL    492   POPC    C31   5002        0.9     12.011
 19739        OBL    492   POPC    O32   5002      -0.63    15.9994
 19740       CTL2    492   POPC    C32   5002      -0.22     12.011
 19741       HAL2    492   POPC    H2X   5002       0.09      1.008
 19742       HAL2    492   POPC    H2Y   5002       0.09      1.008
 19743       CTL2    492   POPC    C23   5003      -0.18     12.011
 19744       HAL2    492   POPC    H3R   5003       0.09      1.008
 19745       HAL2    492   POPC    H3S   5003       0.09      1.008
 19746       CTL2    492   POPC    C24   5004      -0.18     12.011
 19747       HAL2    492   POPC    H4R   5004       0.09      1.008
 19748       HAL2    492   POPC    H4S   5004       0.09      1.008
 19749       CTL2    492   POPC    C25   5005      -0.18     12.011
 19750       HAL2    492   POPC    H5R   5005       0.09      1.008
 19751       HAL2    492   POPC    H5S   5005       0.09      1.008
 19752       CTL2    492   POPC    C26   5006      -0.18     12.011
 19753       HAL2    492   POPC    H6R   5006       0.09      1.008
 19754       HAL2    492   POPC    H6S   5006       0.09      1.008
 19755       CTL2    492   POPC    C27   5007      -0.18     12.011
 19756       HAL2    492   POPC    H7R   5007       0.09      1.008
 19757       HAL2    492   POPC    H7S   5007       0.09      1.008
 19758       CTL2    492   POPC    C28   5008      -0.18     12.011
 19759       HAL2    492   POPC    H8R   5008       0.09      1.008
 19760       HAL2    492   POPC    H8S   5008       0.09      1.008
 19761       CEL1    492   POPC    C29   5009      -0.15     12.011
 19762       HEL1    492   POPC    H91   5009       0.15      1.008
 19763       CEL1    492   POPC   C210   5010      -0.15     12.011
 19764       HEL1    492   POPC   H101   5010       0.15      1.008
 19765       CTL2    492   POPC   C211   5011      -0.18     12.011
 19766       HAL2    492   POPC   H11R   5011       0.09      1.008
 19767       HAL2    492   POPC   H11S   5011       0.09      1.008
 19768       CTL2    492   POPC   C212   5012      -0.18     12.011
 19769       HAL2    492   POPC   H12R   5012       0.09      1.008
 19770       HAL2    492   POPC   H12S   5012       0.09      1.008
 19771       CTL2    492   POPC   C213   5013      -0.18     12.011
 19772       HAL2    492   POPC   H13R   5013       0.09      1.008
 19773       HAL2    492   POPC   H13S   5013       0.09      1.008
 19774       CTL2    492   POPC   C214   5014      -0.18     12.011
 19775       HAL2    492   POPC   H14R   5014       0.09      1.008
 19776       HAL2    492   POPC   H14S   5014       0.09      1.008
 19777       CTL2    492   POPC   C215   5015      -0.18     12.011
 19778       HAL2    492   POPC   H15R   5015       0.09      1.008
 19779       HAL2    492   POPC   H15S   5015       0.09      1.008
 19780       CTL2    492   POPC   C216   5016      -0.18     12.011
 19781       HAL2    492   POPC   H16R   5016       0.09      1.008
 19782       HAL2    492   POPC   H16S   5016       0.09      1.008
 19783       CTL2    492   POPC   C217   5017      -0.18     12.011
 19784       HAL2    492   POPC   H17R   5017       0.09      1.008
 19785       HAL2    492   POPC   H17S   5017       0.09      1.008
 19786       CTL3    492   POPC   C218   5018      -0.27     12.011
 19787       HAL3    492   POPC   H18R   5018       0.09      1.008
 19788       HAL3    492   POPC   H18S   5018       0.09      1.008
 19789       HAL3    492   POPC   H18T   5018       0.09      1.008
 19790       CTL2    492   POPC    C33   5019      -0.18     12.011
 19791       HAL2    492   POPC    H3X   5019       0.09      1.008
 19792       HAL2    492   POPC    H3Y   5019       0.09      1.008
 19793       CTL2    492   POPC    C34   5020      -0.18     12.011
 19794       HAL2    492   POPC    H4X   5020       0.09      1.008
 19795       HAL2    492   POPC    H4Y   5020       0.09      1.008
 19796       CTL2    492   POPC    C35   5021      -0.18     12.011
 19797       HAL2    492   POPC    H5X   5021       0.09      1.008
 19798       HAL2    492   POPC    H5Y   5021       0.09      1.008
 19799       CTL2    492   POPC    C36   5022      -0.18     12.011
 19800       HAL2    492   POPC    H6X   5022       0.09      1.008
 19801       HAL2    492   POPC    H6Y   5022       0.09      1.008
 19802       CTL2    492   POPC    C37   5023      -0.18     12.011
 19803       HAL2    492   POPC    H7X   5023       0.09      1.008
 19804       HAL2    492   POPC    H7Y   5023       0.09      1.008
 19805       CTL2    492   POPC    C38   5024      -0.18     12.011
 19806       HAL2    492   POPC    H8X   5024       0.09      1.008
 19807       HAL2    492   POPC    H8Y   5024       0.09      1.008
 19808       CTL2    492   POPC    C39   5025      -0.18     12.011
 19809       HAL2    492   POPC    H9X   5025       0.09      1.008
 19810       HAL2    492   POPC    H9Y   5025       0.09      1.008
 19811       CTL2    492   POPC   C310   5026      -0.18     12.011
 19812       HAL2    492   POPC   H10X   5026       0.09      1.008
 19813       HAL2    492   POPC   H10Y   5026       0.09      1.008
 19814       CTL2    492   POPC   C311   5027      -0.18     12.011
 19815       HAL2    492   POPC   H11X   5027       0.09      1.008
 19816       HAL2    492   POPC   H11Y   5027       0.09      1.008
 19817       CTL2    492   POPC   C312   5028      -0.18     12.011
 19818       HAL2    492   POPC   H12X   5028       0.09      1.008
 19819       HAL2    492   POPC   H12Y   5028       0.09      1.008
 19820       CTL2    492   POPC   C313   5029      -0.18     12.011
 19821       HAL2    492   POPC   H13X   5029       0.09      1.008
 19822       HAL2    492   POPC   H13Y   5029       0.09      1.008
 19823       CTL2    492   POPC   C314   5030      -0.18     12.011
 19824       HAL2    492   POPC   H14X   5030       0.09      1.008
 19825       HAL2    492   POPC   H14Y   5030       0.09      1.008
 19826       CTL2    492   POPC   C315   5031      -0.18     12.011
 19827       HAL2    492   POPC   H15X   5031       0.09      1.008
 19828       HAL2    492   POPC   H15Y   5031       0.09      1.008
 19829       CTL3    492   POPC   C316   5032      -0.27     12.011
 19830       HAL3    492   POPC   H16X   5032       0.09      1.008
 19831       HAL3    492   POPC   H16Y   5032       0.09      1.008
 19832       HAL3    492   POPC   H16Z   5032       0.09      1.008   ; qtot 0
; residue 493 POPC rtp POPC q  0.0
 19833        NTL    493   POPC      N   5033       -0.6     14.007
 19834       CTL2    493   POPC    C12   5033       -0.1     12.011
 19835         HL    493   POPC   H12A   5033       0.25      1.008
 19836         HL    493   POPC   H12B   5033       0.25      1.008
 19837       CTL5    493   POPC    C13   5033      -0.35     12.011
 19838         HL    493   POPC   H13A   5033       0.25      1.008
 19839         HL    493   POPC   H13B   5033       0.25      1.008
 19840         HL    493   POPC   H13C   5033       0.25      1.008
 19841       CTL5    493   POPC    C14   5033      -0.35     12.011
 19842         HL    493   POPC   H14A   5033       0.25      1.008
 19843         HL    493   POPC   H14B   5033       0.25      1.008
 19844         HL    493   POPC   H14C   5033       0.25      1.008
 19845       CTL5    493   POPC    C15   5033      -0.35     12.011
 19846         HL    493   POPC   H15A   5033       0.25      1.008
 19847         HL    493   POPC   H15B   5033       0.25      1.008
 19848         HL    493   POPC   H15C   5033       0.25      1.008
 19849       CTL2    493   POPC    C11   5034      -0.08     12.011
 19850       HAL2    493   POPC   H11A   5034       0.09      1.008
 19851       HAL2    493   POPC   H11B   5034       0.09      1.008
 19852         PL    493   POPC      P   5034        1.5     30.974
 19853        O2L    493   POPC    O13   5034      -0.78    15.9994
 19854        O2L    493   POPC    O14   5034      -0.78    15.9994
 19855       OSLP    493   POPC    O12   5034      -0.57    15.9994
 19856       OSLP    493   POPC    O11   5034      -0.57    15.9994
 19857       CTL2    493   POPC     C1   5034      -0.08     12.011
 19858       HAL2    493   POPC     HA   5034       0.09      1.008
 19859       HAL2    493   POPC     HB   5034       0.09      1.008
 19860       CTL1    493   POPC     C2   5035       0.17     12.011
 19861       HAL1    493   POPC     HS   5035       0.09      1.008
 19862        OSL    493   POPC    O21   5035      -0.49    15.9994
 19863         CL    493   POPC    C21   5035        0.9     12.011
 19864        OBL    493   POPC    O22   5035      -0.63    15.9994
 19865       CTL2    493   POPC    C22   5035      -0.22     12.011
 19866       HAL2    493   POPC    H2R   5035       0.09      1.008
 19867       HAL2    493   POPC    H2S   5035       0.09      1.008
 19868       CTL2    493   POPC     C3   5036       0.08     12.011
 19869       HAL2    493   POPC     HX   5036       0.09      1.008
 19870       HAL2    493   POPC     HY   5036       0.09      1.008
 19871        OSL    493   POPC    O31   5036      -0.49    15.9994
 19872         CL    493   POPC    C31   5036        0.9     12.011
 19873        OBL    493   POPC    O32   5036      -0.63    15.9994
 19874       CTL2    493   POPC    C32   5036      -0.22     12.011
 19875       HAL2    493   POPC    H2X   5036       0.09      1.008
 19876       HAL2    493   POPC    H2Y   5036       0.09      1.008
 19877       CTL2    493   POPC    C23   5037      -0.18     12.011
 19878       HAL2    493   POPC    H3R   5037       0.09      1.008
 19879       HAL2    493   POPC    H3S   5037       0.09      1.008
 19880       CTL2    493   POPC    C24   5038      -0.18     12.011
 19881       HAL2    493   POPC    H4R   5038       0.09      1.008
 19882       HAL2    493   POPC    H4S   5038       0.09      1.008
 19883       CTL2    493   POPC    C25   5039      -0.18     12.011
 19884       HAL2    493   POPC    H5R   5039       0.09      1.008
 19885       HAL2    493   POPC    H5S   5039       0.09      1.008
 19886       CTL2    493   POPC    C26   5040      -0.18     12.011
 19887       HAL2    493   POPC    H6R   5040       0.09      1.008
 19888       HAL2    493   POPC    H6S   5040       0.09      1.008
 19889       CTL2    493   POPC    C27   5041      -0.18     12.011
 19890       HAL2    493   POPC    H7R   5041       0.09      1.008
 19891       HAL2    493   POPC    H7S   5041       0.09      1.008
 19892       CTL2    493   POPC    C28   5042      -0.18     12.011
 19893       HAL2    493   POPC    H8R   5042       0.09      1.008
 19894       HAL2    493   POPC    H8S   5042       0.09      1.008
 19895       CEL1    493   POPC    C29   5043      -0.15     12.011
 19896       HEL1    493   POPC    H91   5043       0.15      1.008
 19897       CEL1    493   POPC   C210   5044      -0.15     12.011
 19898       HEL1    493   POPC   H101   5044       0.15      1.008
 19899       CTL2    493   POPC   C211   5045      -0.18     12.011
 19900       HAL2    493   POPC   H11R   5045       0.09      1.008
 19901       HAL2    493   POPC   H11S   5045       0.09      1.008
 19902       CTL2    493   POPC   C212   5046      -0.18     12.011
 19903       HAL2    493   POPC   H12R   5046       0.09      1.008
 19904       HAL2    493   POPC   H12S   5046       0.09      1.008
 19905       CTL2    493   POPC   C213   5047      -0.18     12.011
 19906       HAL2    493   POPC   H13R   5047       0.09      1.008
 19907       HAL2    493   POPC   H13S   5047       0.09      1.008
 19908       CTL2    493   POPC   C214   5048      -0.18     12.011
 19909       HAL2    493   POPC   H14R   5048       0.09      1.008
 19910       HAL2    493   POPC   H14S   5048       0.09      1.008
 19911       CTL2    493   POPC   C215   5049      -0.18     12.011
 19912       HAL2    493   POPC   H15R   5049       0.09      1.008
 19913       HAL2    493   POPC   H15S   5049       0.09      1.008
 19914       CTL2    493   POPC   C216   5050      -0.18     12.011
 19915       HAL2    493   POPC   H16R   5050       0.09      1.008
 19916       HAL2    493   POPC   H16S   5050       0.09      1.008
 19917       CTL2    493   POPC   C217   5051      -0.18     12.011
 19918       HAL2    493   POPC   H17R   5051       0.09      1.008
 19919       HAL2    493   POPC   H17S   5051       0.09      1.008
 19920       CTL3    493   POPC   C218   5052      -0.27     12.011
 19921       HAL3    493   POPC   H18R   5052       0.09      1.008
 19922       HAL3    493   POPC   H18S   5052       0.09      1.008
 19923       HAL3    493   POPC   H18T   5052       0.09      1.008
 19924       CTL2    493   POPC    C33   5053      -0.18     12.011
 19925       HAL2    493   POPC    H3X   5053       0.09      1.008
 19926       HAL2    493   POPC    H3Y   5053       0.09      1.008
 19927       CTL2    493   POPC    C34   5054      -0.18     12.011
 19928       HAL2    493   POPC    H4X   5054       0.09      1.008
 19929       HAL2    493   POPC    H4Y   5054       0.09      1.008
 19930       CTL2    493   POPC    C35   5055      -0.18     12.011
 19931       HAL2    493   POPC    H5X   5055       0.09      1.008
 19932       HAL2    493   POPC    H5Y   5055       0.09      1.008
 19933       CTL2    493   POPC    C36   5056      -0.18     12.011
 19934       HAL2    493   POPC    H6X   5056       0.09      1.008
 19935       HAL2    493   POPC    H6Y   5056       0.09      1.008
 19936       CTL2    493   POPC    C37   5057      -0.18     12.011
 19937       HAL2    493   POPC    H7X   5057       0.09      1.008
 19938       HAL2    493   POPC    H7Y   5057       0.09      1.008
 19939       CTL2    493   POPC    C38   5058      -0.18     12.011
 19940       HAL2    493   POPC    H8X   5058       0.09      1.008
 19941       HAL2    493   POPC    H8Y   5058       0.09      1.008
 19942       CTL2    493   POPC    C39   5059      -0.18     12.011
 19943       HAL2    493   POPC    H9X   5059       0.09      1.008
 19944       HAL2    493   POPC    H9Y   5059       0.09      1.008
 19945       CTL2    493   POPC   C310   5060      -0.18     12.011
 19946       HAL2    493   POPC   H10X   5060       0.09      1.008
 19947       HAL2    493   POPC   H10Y   5060       0.09      1.008
 19948       CTL2    493   POPC   C311   5061      -0.18     12.011
 19949       HAL2    493   POPC   H11X   5061       0.09      1.008
 19950       HAL2    493   POPC   H11Y   5061       0.09      1.008
 19951       CTL2    493   POPC   C312   5062      -0.18     12.011
 19952       HAL2    493   POPC   H12X   5062       0.09      1.008
 19953       HAL2    493   POPC   H12Y   5062       0.09      1.008
 19954       CTL2    493   POPC   C313   5063      -0.18     12.011
 19955       HAL2    493   POPC   H13X   5063       0.09      1.008
 19956       HAL2    493   POPC   H13Y   5063       0.09      1.008
 19957       CTL2    493   POPC   C314   5064      -0.18     12.011
 19958       HAL2    493   POPC   H14X   5064       0.09      1.008
 19959       HAL2    493   POPC   H14Y   5064       0.09      1.008
 19960       CTL2    493   POPC   C315   5065      -0.18     12.011
 19961       HAL2    493   POPC   H15X   5065       0.09      1.008
 19962       HAL2    493   POPC   H15Y   5065       0.09      1.008
 19963       CTL3    493   POPC   C316   5066      -0.27     12.011
 19964       HAL3    493   POPC   H16X   5066       0.09      1.008
 19965       HAL3    493   POPC   H16Y   5066       0.09      1.008
 19966       HAL3    493   POPC   H16Z   5066       0.09      1.008   ; qtot 0
; residue 494 POPC rtp POPC q  0.0
 19967        NTL    494   POPC      N   5067       -0.6     14.007
 19968       CTL2    494   POPC    C12   5067       -0.1     12.011
 19969         HL    494   POPC   H12A   5067       0.25      1.008
 19970         HL    494   POPC   H12B   5067       0.25      1.008
 19971       CTL5    494   POPC    C13   5067      -0.35     12.011
 19972         HL    494   POPC   H13A   5067       0.25      1.008
 19973         HL    494   POPC   H13B   5067       0.25      1.008
 19974         HL    494   POPC   H13C   5067       0.25      1.008
 19975       CTL5    494   POPC    C14   5067      -0.35     12.011
 19976         HL    494   POPC   H14A   5067       0.25      1.008
 19977         HL    494   POPC   H14B   5067       0.25      1.008
 19978         HL    494   POPC   H14C   5067       0.25      1.008
 19979       CTL5    494   POPC    C15   5067      -0.35     12.011
 19980         HL    494   POPC   H15A   5067       0.25      1.008
 19981         HL    494   POPC   H15B   5067       0.25      1.008
 19982         HL    494   POPC   H15C   5067       0.25      1.008
 19983       CTL2    494   POPC    C11   5068      -0.08     12.011
 19984       HAL2    494   POPC   H11A   5068       0.09      1.008
 19985       HAL2    494   POPC   H11B   5068       0.09      1.008
 19986         PL    494   POPC      P   5068        1.5     30.974
 19987        O2L    494   POPC    O13   5068      -0.78    15.9994
 19988        O2L    494   POPC    O14   5068      -0.78    15.9994
 19989       OSLP    494   POPC    O12   5068      -0.57    15.9994
 19990       OSLP    494   POPC    O11   5068      -0.57    15.9994
 19991       CTL2    494   POPC     C1   5068      -0.08     12.011
 19992       HAL2    494   POPC     HA   5068       0.09      1.008
 19993       HAL2    494   POPC     HB   5068       0.09      1.008
 19994       CTL1    494   POPC     C2   5069       0.17     12.011
 19995       HAL1    494   POPC     HS   5069       0.09      1.008
 19996        OSL    494   POPC    O21   5069      -0.49    15.9994
 19997         CL    494   POPC    C21   5069        0.9     12.011
 19998        OBL    494   POPC    O22   5069      -0.63    15.9994
 19999       CTL2    494   POPC    C22   5069      -0.22     12.011
 20000       HAL2    494   POPC    H2R   5069       0.09      1.008
 20001       HAL2    494   POPC    H2S   5069       0.09      1.008
 20002       CTL2    494   POPC     C3   5070       0.08     12.011
 20003       HAL2    494   POPC     HX   5070       0.09      1.008
 20004       HAL2    494   POPC     HY   5070       0.09      1.008
 20005        OSL    494   POPC    O31   5070      -0.49    15.9994
 20006         CL    494   POPC    C31   5070        0.9     12.011
 20007        OBL    494   POPC    O32   5070      -0.63    15.9994
 20008       CTL2    494   POPC    C32   5070      -0.22     12.011
 20009       HAL2    494   POPC    H2X   5070       0.09      1.008
 20010       HAL2    494   POPC    H2Y   5070       0.09      1.008
 20011       CTL2    494   POPC    C23   5071      -0.18     12.011
 20012       HAL2    494   POPC    H3R   5071       0.09      1.008
 20013       HAL2    494   POPC    H3S   5071       0.09      1.008
 20014       CTL2    494   POPC    C24   5072      -0.18     12.011
 20015       HAL2    494   POPC    H4R   5072       0.09      1.008
 20016       HAL2    494   POPC    H4S   5072       0.09      1.008
 20017       CTL2    494   POPC    C25   5073      -0.18     12.011
 20018       HAL2    494   POPC    H5R   5073       0.09      1.008
 20019       HAL2    494   POPC    H5S   5073       0.09      1.008
 20020       CTL2    494   POPC    C26   5074      -0.18     12.011
 20021       HAL2    494   POPC    H6R   5074       0.09      1.008
 20022       HAL2    494   POPC    H6S   5074       0.09      1.008
 20023       CTL2    494   POPC    C27   5075      -0.18     12.011
 20024       HAL2    494   POPC    H7R   5075       0.09      1.008
 20025       HAL2    494   POPC    H7S   5075       0.09      1.008
 20026       CTL2    494   POPC    C28   5076      -0.18     12.011
 20027       HAL2    494   POPC    H8R   5076       0.09      1.008
 20028       HAL2    494   POPC    H8S   5076       0.09      1.008
 20029       CEL1    494   POPC    C29   5077      -0.15     12.011
 20030       HEL1    494   POPC    H91   5077       0.15      1.008
 20031       CEL1    494   POPC   C210   5078      -0.15     12.011
 20032       HEL1    494   POPC   H101   5078       0.15      1.008
 20033       CTL2    494   POPC   C211   5079      -0.18     12.011
 20034       HAL2    494   POPC   H11R   5079       0.09      1.008
 20035       HAL2    494   POPC   H11S   5079       0.09      1.008
 20036       CTL2    494   POPC   C212   5080      -0.18     12.011
 20037       HAL2    494   POPC   H12R   5080       0.09      1.008
 20038       HAL2    494   POPC   H12S   5080       0.09      1.008
 20039       CTL2    494   POPC   C213   5081      -0.18     12.011
 20040       HAL2    494   POPC   H13R   5081       0.09      1.008
 20041       HAL2    494   POPC   H13S   5081       0.09      1.008
 20042       CTL2    494   POPC   C214   5082      -0.18     12.011
 20043       HAL2    494   POPC   H14R   5082       0.09      1.008
 20044       HAL2    494   POPC   H14S   5082       0.09      1.008
 20045       CTL2    494   POPC   C215   5083      -0.18     12.011
 20046       HAL2    494   POPC   H15R   5083       0.09      1.008
 20047       HAL2    494   POPC   H15S   5083       0.09      1.008
 20048       CTL2    494   POPC   C216   5084      -0.18     12.011
 20049       HAL2    494   POPC   H16R   5084       0.09      1.008
 20050       HAL2    494   POPC   H16S   5084       0.09      1.008
 20051       CTL2    494   POPC   C217   5085      -0.18     12.011
 20052       HAL2    494   POPC   H17R   5085       0.09      1.008
 20053       HAL2    494   POPC   H17S   5085       0.09      1.008
 20054       CTL3    494   POPC   C218   5086      -0.27     12.011
 20055       HAL3    494   POPC   H18R   5086       0.09      1.008
 20056       HAL3    494   POPC   H18S   5086       0.09      1.008
 20057       HAL3    494   POPC   H18T   5086       0.09      1.008
 20058       CTL2    494   POPC    C33   5087      -0.18     12.011
 20059       HAL2    494   POPC    H3X   5087       0.09      1.008
 20060       HAL2    494   POPC    H3Y   5087       0.09      1.008
 20061       CTL2    494   POPC    C34   5088      -0.18     12.011
 20062       HAL2    494   POPC    H4X   5088       0.09      1.008
 20063       HAL2    494   POPC    H4Y   5088       0.09      1.008
 20064       CTL2    494   POPC    C35   5089      -0.18     12.011
 20065       HAL2    494   POPC    H5X   5089       0.09      1.008
 20066       HAL2    494   POPC    H5Y   5089       0.09      1.008
 20067       CTL2    494   POPC    C36   5090      -0.18     12.011
 20068       HAL2    494   POPC    H6X   5090       0.09      1.008
 20069       HAL2    494   POPC    H6Y   5090       0.09      1.008
 20070       CTL2    494   POPC    C37   5091      -0.18     12.011
 20071       HAL2    494   POPC    H7X   5091       0.09      1.008
 20072       HAL2    494   POPC    H7Y   5091       0.09      1.008
 20073       CTL2    494   POPC    C38   5092      -0.18     12.011
 20074       HAL2    494   POPC    H8X   5092       0.09      1.008
 20075       HAL2    494   POPC    H8Y   5092       0.09      1.008
 20076       CTL2    494   POPC    C39   5093      -0.18     12.011
 20077       HAL2    494   POPC    H9X   5093       0.09      1.008
 20078       HAL2    494   POPC    H9Y   5093       0.09      1.008
 20079       CTL2    494   POPC   C310   5094      -0.18     12.011
 20080       HAL2    494   POPC   H10X   5094       0.09      1.008
 20081       HAL2    494   POPC   H10Y   5094       0.09      1.008
 20082       CTL2    494   POPC   C311   5095      -0.18     12.011
 20083       HAL2    494   POPC   H11X   5095       0.09      1.008
 20084       HAL2    494   POPC   H11Y   5095       0.09      1.008
 20085       CTL2    494   POPC   C312   5096      -0.18     12.011
 20086       HAL2    494   POPC   H12X   5096       0.09      1.008
 20087       HAL2    494   POPC   H12Y   5096       0.09      1.008
 20088       CTL2    494   POPC   C313   5097      -0.18     12.011
 20089       HAL2    494   POPC   H13X   5097       0.09      1.008
 20090       HAL2    494   POPC   H13Y   5097       0.09      1.008
 20091       CTL2    494   POPC   C314   5098      -0.18     12.011
 20092       HAL2    494   POPC   H14X   5098       0.09      1.008
 20093       HAL2    494   POPC   H14Y   5098       0.09      1.008
 20094       CTL2    494   POPC   C315   5099      -0.18     12.011
 20095       HAL2    494   POPC   H15X   5099       0.09      1.008
 20096       HAL2    494   POPC   H15Y   5099       0.09      1.008
 20097       CTL3    494   POPC   C316   5100      -0.27     12.011
 20098       HAL3    494   POPC   H16X   5100       0.09      1.008
 20099       HAL3    494   POPC   H16Y   5100       0.09      1.008
 20100       HAL3    494   POPC   H16Z   5100       0.09      1.008   ; qtot 0
; residue 495 POPC rtp POPC q  0.0
 20101        NTL    495   POPC      N   5101       -0.6     14.007
 20102       CTL2    495   POPC    C12   5101       -0.1     12.011
 20103         HL    495   POPC   H12A   5101       0.25      1.008
 20104         HL    495   POPC   H12B   5101       0.25      1.008
 20105       CTL5    495   POPC    C13   5101      -0.35     12.011
 20106         HL    495   POPC   H13A   5101       0.25      1.008
 20107         HL    495   POPC   H13B   5101       0.25      1.008
 20108         HL    495   POPC   H13C   5101       0.25      1.008
 20109       CTL5    495   POPC    C14   5101      -0.35     12.011
 20110         HL    495   POPC   H14A   5101       0.25      1.008
 20111         HL    495   POPC   H14B   5101       0.25      1.008
 20112         HL    495   POPC   H14C   5101       0.25      1.008
 20113       CTL5    495   POPC    C15   5101      -0.35     12.011
 20114         HL    495   POPC   H15A   5101       0.25      1.008
 20115         HL    495   POPC   H15B   5101       0.25      1.008
 20116         HL    495   POPC   H15C   5101       0.25      1.008
 20117       CTL2    495   POPC    C11   5102      -0.08     12.011
 20118       HAL2    495   POPC   H11A   5102       0.09      1.008
 20119       HAL2    495   POPC   H11B   5102       0.09      1.008
 20120         PL    495   POPC      P   5102        1.5     30.974
 20121        O2L    495   POPC    O13   5102      -0.78    15.9994
 20122        O2L    495   POPC    O14   5102      -0.78    15.9994
 20123       OSLP    495   POPC    O12   5102      -0.57    15.9994
 20124       OSLP    495   POPC    O11   5102      -0.57    15.9994
 20125       CTL2    495   POPC     C1   5102      -0.08     12.011
 20126       HAL2    495   POPC     HA   5102       0.09      1.008
 20127       HAL2    495   POPC     HB   5102       0.09      1.008
 20128       CTL1    495   POPC     C2   5103       0.17     12.011
 20129       HAL1    495   POPC     HS   5103       0.09      1.008
 20130        OSL    495   POPC    O21   5103      -0.49    15.9994
 20131         CL    495   POPC    C21   5103        0.9     12.011
 20132        OBL    495   POPC    O22   5103      -0.63    15.9994
 20133       CTL2    495   POPC    C22   5103      -0.22     12.011
 20134       HAL2    495   POPC    H2R   5103       0.09      1.008
 20135       HAL2    495   POPC    H2S   5103       0.09      1.008
 20136       CTL2    495   POPC     C3   5104       0.08     12.011
 20137       HAL2    495   POPC     HX   5104       0.09      1.008
 20138       HAL2    495   POPC     HY   5104       0.09      1.008
 20139        OSL    495   POPC    O31   5104      -0.49    15.9994
 20140         CL    495   POPC    C31   5104        0.9     12.011
 20141        OBL    495   POPC    O32   5104      -0.63    15.9994
 20142       CTL2    495   POPC    C32   5104      -0.22     12.011
 20143       HAL2    495   POPC    H2X   5104       0.09      1.008
 20144       HAL2    495   POPC    H2Y   5104       0.09      1.008
 20145       CTL2    495   POPC    C23   5105      -0.18     12.011
 20146       HAL2    495   POPC    H3R   5105       0.09      1.008
 20147       HAL2    495   POPC    H3S   5105       0.09      1.008
 20148       CTL2    495   POPC    C24   5106      -0.18     12.011
 20149       HAL2    495   POPC    H4R   5106       0.09      1.008
 20150       HAL2    495   POPC    H4S   5106       0.09      1.008
 20151       CTL2    495   POPC    C25   5107      -0.18     12.011
 20152       HAL2    495   POPC    H5R   5107       0.09      1.008
 20153       HAL2    495   POPC    H5S   5107       0.09      1.008
 20154       CTL2    495   POPC    C26   5108      -0.18     12.011
 20155       HAL2    495   POPC    H6R   5108       0.09      1.008
 20156       HAL2    495   POPC    H6S   5108       0.09      1.008
 20157       CTL2    495   POPC    C27   5109      -0.18     12.011
 20158       HAL2    495   POPC    H7R   5109       0.09      1.008
 20159       HAL2    495   POPC    H7S   5109       0.09      1.008
 20160       CTL2    495   POPC    C28   5110      -0.18     12.011
 20161       HAL2    495   POPC    H8R   5110       0.09      1.008
 20162       HAL2    495   POPC    H8S   5110       0.09      1.008
 20163       CEL1    495   POPC    C29   5111      -0.15     12.011
 20164       HEL1    495   POPC    H91   5111       0.15      1.008
 20165       CEL1    495   POPC   C210   5112      -0.15     12.011
 20166       HEL1    495   POPC   H101   5112       0.15      1.008
 20167       CTL2    495   POPC   C211   5113      -0.18     12.011
 20168       HAL2    495   POPC   H11R   5113       0.09      1.008
 20169       HAL2    495   POPC   H11S   5113       0.09      1.008
 20170       CTL2    495   POPC   C212   5114      -0.18     12.011
 20171       HAL2    495   POPC   H12R   5114       0.09      1.008
 20172       HAL2    495   POPC   H12S   5114       0.09      1.008
 20173       CTL2    495   POPC   C213   5115      -0.18     12.011
 20174       HAL2    495   POPC   H13R   5115       0.09      1.008
 20175       HAL2    495   POPC   H13S   5115       0.09      1.008
 20176       CTL2    495   POPC   C214   5116      -0.18     12.011
 20177       HAL2    495   POPC   H14R   5116       0.09      1.008
 20178       HAL2    495   POPC   H14S   5116       0.09      1.008
 20179       CTL2    495   POPC   C215   5117      -0.18     12.011
 20180       HAL2    495   POPC   H15R   5117       0.09      1.008
 20181       HAL2    495   POPC   H15S   5117       0.09      1.008
 20182       CTL2    495   POPC   C216   5118      -0.18     12.011
 20183       HAL2    495   POPC   H16R   5118       0.09      1.008
 20184       HAL2    495   POPC   H16S   5118       0.09      1.008
 20185       CTL2    495   POPC   C217   5119      -0.18     12.011
 20186       HAL2    495   POPC   H17R   5119       0.09      1.008
 20187       HAL2    495   POPC   H17S   5119       0.09      1.008
 20188       CTL3    495   POPC   C218   5120      -0.27     12.011
 20189       HAL3    495   POPC   H18R   5120       0.09      1.008
 20190       HAL3    495   POPC   H18S   5120       0.09      1.008
 20191       HAL3    495   POPC   H18T   5120       0.09      1.008
 20192       CTL2    495   POPC    C33   5121      -0.18     12.011
 20193       HAL2    495   POPC    H3X   5121       0.09      1.008
 20194       HAL2    495   POPC    H3Y   5121       0.09      1.008
 20195       CTL2    495   POPC    C34   5122      -0.18     12.011
 20196       HAL2    495   POPC    H4X   5122       0.09      1.008
 20197       HAL2    495   POPC    H4Y   5122       0.09      1.008
 20198       CTL2    495   POPC    C35   5123      -0.18     12.011
 20199       HAL2    495   POPC    H5X   5123       0.09      1.008
 20200       HAL2    495   POPC    H5Y   5123       0.09      1.008
 20201       CTL2    495   POPC    C36   5124      -0.18     12.011
 20202       HAL2    495   POPC    H6X   5124       0.09      1.008
 20203       HAL2    495   POPC    H6Y   5124       0.09      1.008
 20204       CTL2    495   POPC    C37   5125      -0.18     12.011
 20205       HAL2    495   POPC    H7X   5125       0.09      1.008
 20206       HAL2    495   POPC    H7Y   5125       0.09      1.008
 20207       CTL2    495   POPC    C38   5126      -0.18     12.011
 20208       HAL2    495   POPC    H8X   5126       0.09      1.008
 20209       HAL2    495   POPC    H8Y   5126       0.09      1.008
 20210       CTL2    495   POPC    C39   5127      -0.18     12.011
 20211       HAL2    495   POPC    H9X   5127       0.09      1.008
 20212       HAL2    495   POPC    H9Y   5127       0.09      1.008
 20213       CTL2    495   POPC   C310   5128      -0.18     12.011
 20214       HAL2    495   POPC   H10X   5128       0.09      1.008
 20215       HAL2    495   POPC   H10Y   5128       0.09      1.008
 20216       CTL2    495   POPC   C311   5129      -0.18     12.011
 20217       HAL2    495   POPC   H11X   5129       0.09      1.008
 20218       HAL2    495   POPC   H11Y   5129       0.09      1.008
 20219       CTL2    495   POPC   C312   5130      -0.18     12.011
 20220       HAL2    495   POPC   H12X   5130       0.09      1.008
 20221       HAL2    495   POPC   H12Y   5130       0.09      1.008
 20222       CTL2    495   POPC   C313   5131      -0.18     12.011
 20223       HAL2    495   POPC   H13X   5131       0.09      1.008
 20224       HAL2    495   POPC   H13Y   5131       0.09      1.008
 20225       CTL2    495   POPC   C314   5132      -0.18     12.011
 20226       HAL2    495   POPC   H14X   5132       0.09      1.008
 20227       HAL2    495   POPC   H14Y   5132       0.09      1.008
 20228       CTL2    495   POPC   C315   5133      -0.18     12.011
 20229       HAL2    495   POPC   H15X   5133       0.09      1.008
 20230       HAL2    495   POPC   H15Y   5133       0.09      1.008
 20231       CTL3    495   POPC   C316   5134      -0.27     12.011
 20232       HAL3    495   POPC   H16X   5134       0.09      1.008
 20233       HAL3    495   POPC   H16Y   5134       0.09      1.008
 20234       HAL3    495   POPC   H16Z   5134       0.09      1.008   ; qtot 0
; residue 496 POPC rtp POPC q  0.0
 20235        NTL    496   POPC      N   5135       -0.6     14.007
 20236       CTL2    496   POPC    C12   5135       -0.1     12.011
 20237         HL    496   POPC   H12A   5135       0.25      1.008
 20238         HL    496   POPC   H12B   5135       0.25      1.008
 20239       CTL5    496   POPC    C13   5135      -0.35     12.011
 20240         HL    496   POPC   H13A   5135       0.25      1.008
 20241         HL    496   POPC   H13B   5135       0.25      1.008
 20242         HL    496   POPC   H13C   5135       0.25      1.008
 20243       CTL5    496   POPC    C14   5135      -0.35     12.011
 20244         HL    496   POPC   H14A   5135       0.25      1.008
 20245         HL    496   POPC   H14B   5135       0.25      1.008
 20246         HL    496   POPC   H14C   5135       0.25      1.008
 20247       CTL5    496   POPC    C15   5135      -0.35     12.011
 20248         HL    496   POPC   H15A   5135       0.25      1.008
 20249         HL    496   POPC   H15B   5135       0.25      1.008
 20250         HL    496   POPC   H15C   5135       0.25      1.008
 20251       CTL2    496   POPC    C11   5136      -0.08     12.011
 20252       HAL2    496   POPC   H11A   5136       0.09      1.008
 20253       HAL2    496   POPC   H11B   5136       0.09      1.008
 20254         PL    496   POPC      P   5136        1.5     30.974
 20255        O2L    496   POPC    O13   5136      -0.78    15.9994
 20256        O2L    496   POPC    O14   5136      -0.78    15.9994
 20257       OSLP    496   POPC    O12   5136      -0.57    15.9994
 20258       OSLP    496   POPC    O11   5136      -0.57    15.9994
 20259       CTL2    496   POPC     C1   5136      -0.08     12.011
 20260       HAL2    496   POPC     HA   5136       0.09      1.008
 20261       HAL2    496   POPC     HB   5136       0.09      1.008
 20262       CTL1    496   POPC     C2   5137       0.17     12.011
 20263       HAL1    496   POPC     HS   5137       0.09      1.008
 20264        OSL    496   POPC    O21   5137      -0.49    15.9994
 20265         CL    496   POPC    C21   5137        0.9     12.011
 20266        OBL    496   POPC    O22   5137      -0.63    15.9994
 20267       CTL2    496   POPC    C22   5137      -0.22     12.011
 20268       HAL2    496   POPC    H2R   5137       0.09      1.008
 20269       HAL2    496   POPC    H2S   5137       0.09      1.008
 20270       CTL2    496   POPC     C3   5138       0.08     12.011
 20271       HAL2    496   POPC     HX   5138       0.09      1.008
 20272       HAL2    496   POPC     HY   5138       0.09      1.008
 20273        OSL    496   POPC    O31   5138      -0.49    15.9994
 20274         CL    496   POPC    C31   5138        0.9     12.011
 20275        OBL    496   POPC    O32   5138      -0.63    15.9994
 20276       CTL2    496   POPC    C32   5138      -0.22     12.011
 20277       HAL2    496   POPC    H2X   5138       0.09      1.008
 20278       HAL2    496   POPC    H2Y   5138       0.09      1.008
 20279       CTL2    496   POPC    C23   5139      -0.18     12.011
 20280       HAL2    496   POPC    H3R   5139       0.09      1.008
 20281       HAL2    496   POPC    H3S   5139       0.09      1.008
 20282       CTL2    496   POPC    C24   5140      -0.18     12.011
 20283       HAL2    496   POPC    H4R   5140       0.09      1.008
 20284       HAL2    496   POPC    H4S   5140       0.09      1.008
 20285       CTL2    496   POPC    C25   5141      -0.18     12.011
 20286       HAL2    496   POPC    H5R   5141       0.09      1.008
 20287       HAL2    496   POPC    H5S   5141       0.09      1.008
 20288       CTL2    496   POPC    C26   5142      -0.18     12.011
 20289       HAL2    496   POPC    H6R   5142       0.09      1.008
 20290       HAL2    496   POPC    H6S   5142       0.09      1.008
 20291       CTL2    496   POPC    C27   5143      -0.18     12.011
 20292       HAL2    496   POPC    H7R   5143       0.09      1.008
 20293       HAL2    496   POPC    H7S   5143       0.09      1.008
 20294       CTL2    496   POPC    C28   5144      -0.18     12.011
 20295       HAL2    496   POPC    H8R   5144       0.09      1.008
 20296       HAL2    496   POPC    H8S   5144       0.09      1.008
 20297       CEL1    496   POPC    C29   5145      -0.15     12.011
 20298       HEL1    496   POPC    H91   5145       0.15      1.008
 20299       CEL1    496   POPC   C210   5146      -0.15     12.011
 20300       HEL1    496   POPC   H101   5146       0.15      1.008
 20301       CTL2    496   POPC   C211   5147      -0.18     12.011
 20302       HAL2    496   POPC   H11R   5147       0.09      1.008
 20303       HAL2    496   POPC   H11S   5147       0.09      1.008
 20304       CTL2    496   POPC   C212   5148      -0.18     12.011
 20305       HAL2    496   POPC   H12R   5148       0.09      1.008
 20306       HAL2    496   POPC   H12S   5148       0.09      1.008
 20307       CTL2    496   POPC   C213   5149      -0.18     12.011
 20308       HAL2    496   POPC   H13R   5149       0.09      1.008
 20309       HAL2    496   POPC   H13S   5149       0.09      1.008
 20310       CTL2    496   POPC   C214   5150      -0.18     12.011
 20311       HAL2    496   POPC   H14R   5150       0.09      1.008
 20312       HAL2    496   POPC   H14S   5150       0.09      1.008
 20313       CTL2    496   POPC   C215   5151      -0.18     12.011
 20314       HAL2    496   POPC   H15R   5151       0.09      1.008
 20315       HAL2    496   POPC   H15S   5151       0.09      1.008
 20316       CTL2    496   POPC   C216   5152      -0.18     12.011
 20317       HAL2    496   POPC   H16R   5152       0.09      1.008
 20318       HAL2    496   POPC   H16S   5152       0.09      1.008
 20319       CTL2    496   POPC   C217   5153      -0.18     12.011
 20320       HAL2    496   POPC   H17R   5153       0.09      1.008
 20321       HAL2    496   POPC   H17S   5153       0.09      1.008
 20322       CTL3    496   POPC   C218   5154      -0.27     12.011
 20323       HAL3    496   POPC   H18R   5154       0.09      1.008
 20324       HAL3    496   POPC   H18S   5154       0.09      1.008
 20325       HAL3    496   POPC   H18T   5154       0.09      1.008
 20326       CTL2    496   POPC    C33   5155      -0.18     12.011
 20327       HAL2    496   POPC    H3X   5155       0.09      1.008
 20328       HAL2    496   POPC    H3Y   5155       0.09      1.008
 20329       CTL2    496   POPC    C34   5156      -0.18     12.011
 20330       HAL2    496   POPC    H4X   5156       0.09      1.008
 20331       HAL2    496   POPC    H4Y   5156       0.09      1.008
 20332       CTL2    496   POPC    C35   5157      -0.18     12.011
 20333       HAL2    496   POPC    H5X   5157       0.09      1.008
 20334       HAL2    496   POPC    H5Y   5157       0.09      1.008
 20335       CTL2    496   POPC    C36   5158      -0.18     12.011
 20336       HAL2    496   POPC    H6X   5158       0.09      1.008
 20337       HAL2    496   POPC    H6Y   5158       0.09      1.008
 20338       CTL2    496   POPC    C37   5159      -0.18     12.011
 20339       HAL2    496   POPC    H7X   5159       0.09      1.008
 20340       HAL2    496   POPC    H7Y   5159       0.09      1.008
 20341       CTL2    496   POPC    C38   5160      -0.18     12.011
 20342       HAL2    496   POPC    H8X   5160       0.09      1.008
 20343       HAL2    496   POPC    H8Y   5160       0.09      1.008
 20344       CTL2    496   POPC    C39   5161      -0.18     12.011
 20345       HAL2    496   POPC    H9X   5161       0.09      1.008
 20346       HAL2    496   POPC    H9Y   5161       0.09      1.008
 20347       CTL2    496   POPC   C310   5162      -0.18     12.011
 20348       HAL2    496   POPC   H10X   5162       0.09      1.008
 20349       HAL2    496   POPC   H10Y   5162       0.09      1.008
 20350       CTL2    496   POPC   C311   5163      -0.18     12.011
 20351       HAL2    496   POPC   H11X   5163       0.09      1.008
 20352       HAL2    496   POPC   H11Y   5163       0.09      1.008
 20353       CTL2    496   POPC   C312   5164      -0.18     12.011
 20354       HAL2    496   POPC   H12X   5164       0.09      1.008
 20355       HAL2    496   POPC   H12Y   5164       0.09      1.008
 20356       CTL2    496   POPC   C313   5165      -0.18     12.011
 20357       HAL2    496   POPC   H13X   5165       0.09      1.008
 20358       HAL2    496   POPC   H13Y   5165       0.09      1.008
 20359       CTL2    496   POPC   C314   5166      -0.18     12.011
 20360       HAL2    496   POPC   H14X   5166       0.09      1.008
 20361       HAL2    496   POPC   H14Y   5166       0.09      1.008
 20362       CTL2    496   POPC   C315   5167      -0.18     12.011
 20363       HAL2    496   POPC   H15X   5167       0.09      1.008
 20364       HAL2    496   POPC   H15Y   5167       0.09      1.008
 20365       CTL3    496   POPC   C316   5168      -0.27     12.011
 20366       HAL3    496   POPC   H16X   5168       0.09      1.008
 20367       HAL3    496   POPC   H16Y   5168       0.09      1.008
 20368       HAL3    496   POPC   H16Z   5168       0.09      1.008   ; qtot 0
; residue 497 POPC rtp POPC q  0.0
 20369        NTL    497   POPC      N   5169       -0.6     14.007
 20370       CTL2    497   POPC    C12   5169       -0.1     12.011
 20371         HL    497   POPC   H12A   5169       0.25      1.008
 20372         HL    497   POPC   H12B   5169       0.25      1.008
 20373       CTL5    497   POPC    C13   5169      -0.35     12.011
 20374         HL    497   POPC   H13A   5169       0.25      1.008
 20375         HL    497   POPC   H13B   5169       0.25      1.008
 20376         HL    497   POPC   H13C   5169       0.25      1.008
 20377       CTL5    497   POPC    C14   5169      -0.35     12.011
 20378         HL    497   POPC   H14A   5169       0.25      1.008
 20379         HL    497   POPC   H14B   5169       0.25      1.008
 20380         HL    497   POPC   H14C   5169       0.25      1.008
 20381       CTL5    497   POPC    C15   5169      -0.35     12.011
 20382         HL    497   POPC   H15A   5169       0.25      1.008
 20383         HL    497   POPC   H15B   5169       0.25      1.008
 20384         HL    497   POPC   H15C   5169       0.25      1.008
 20385       CTL2    497   POPC    C11   5170      -0.08     12.011
 20386       HAL2    497   POPC   H11A   5170       0.09      1.008
 20387       HAL2    497   POPC   H11B   5170       0.09      1.008
 20388         PL    497   POPC      P   5170        1.5     30.974
 20389        O2L    497   POPC    O13   5170      -0.78    15.9994
 20390        O2L    497   POPC    O14   5170      -0.78    15.9994
 20391       OSLP    497   POPC    O12   5170      -0.57    15.9994
 20392       OSLP    497   POPC    O11   5170      -0.57    15.9994
 20393       CTL2    497   POPC     C1   5170      -0.08     12.011
 20394       HAL2    497   POPC     HA   5170       0.09      1.008
 20395       HAL2    497   POPC     HB   5170       0.09      1.008
 20396       CTL1    497   POPC     C2   5171       0.17     12.011
 20397       HAL1    497   POPC     HS   5171       0.09      1.008
 20398        OSL    497   POPC    O21   5171      -0.49    15.9994
 20399         CL    497   POPC    C21   5171        0.9     12.011
 20400        OBL    497   POPC    O22   5171      -0.63    15.9994
 20401       CTL2    497   POPC    C22   5171      -0.22     12.011
 20402       HAL2    497   POPC    H2R   5171       0.09      1.008
 20403       HAL2    497   POPC    H2S   5171       0.09      1.008
 20404       CTL2    497   POPC     C3   5172       0.08     12.011
 20405       HAL2    497   POPC     HX   5172       0.09      1.008
 20406       HAL2    497   POPC     HY   5172       0.09      1.008
 20407        OSL    497   POPC    O31   5172      -0.49    15.9994
 20408         CL    497   POPC    C31   5172        0.9     12.011
 20409        OBL    497   POPC    O32   5172      -0.63    15.9994
 20410       CTL2    497   POPC    C32   5172      -0.22     12.011
 20411       HAL2    497   POPC    H2X   5172       0.09      1.008
 20412       HAL2    497   POPC    H2Y   5172       0.09      1.008
 20413       CTL2    497   POPC    C23   5173      -0.18     12.011
 20414       HAL2    497   POPC    H3R   5173       0.09      1.008
 20415       HAL2    497   POPC    H3S   5173       0.09      1.008
 20416       CTL2    497   POPC    C24   5174      -0.18     12.011
 20417       HAL2    497   POPC    H4R   5174       0.09      1.008
 20418       HAL2    497   POPC    H4S   5174       0.09      1.008
 20419       CTL2    497   POPC    C25   5175      -0.18     12.011
 20420       HAL2    497   POPC    H5R   5175       0.09      1.008
 20421       HAL2    497   POPC    H5S   5175       0.09      1.008
 20422       CTL2    497   POPC    C26   5176      -0.18     12.011
 20423       HAL2    497   POPC    H6R   5176       0.09      1.008
 20424       HAL2    497   POPC    H6S   5176       0.09      1.008
 20425       CTL2    497   POPC    C27   5177      -0.18     12.011
 20426       HAL2    497   POPC    H7R   5177       0.09      1.008
 20427       HAL2    497   POPC    H7S   5177       0.09      1.008
 20428       CTL2    497   POPC    C28   5178      -0.18     12.011
 20429       HAL2    497   POPC    H8R   5178       0.09      1.008
 20430       HAL2    497   POPC    H8S   5178       0.09      1.008
 20431       CEL1    497   POPC    C29   5179      -0.15     12.011
 20432       HEL1    497   POPC    H91   5179       0.15      1.008
 20433       CEL1    497   POPC   C210   5180      -0.15     12.011
 20434       HEL1    497   POPC   H101   5180       0.15      1.008
 20435       CTL2    497   POPC   C211   5181      -0.18     12.011
 20436       HAL2    497   POPC   H11R   5181       0.09      1.008
 20437       HAL2    497   POPC   H11S   5181       0.09      1.008
 20438       CTL2    497   POPC   C212   5182      -0.18     12.011
 20439       HAL2    497   POPC   H12R   5182       0.09      1.008
 20440       HAL2    497   POPC   H12S   5182       0.09      1.008
 20441       CTL2    497   POPC   C213   5183      -0.18     12.011
 20442       HAL2    497   POPC   H13R   5183       0.09      1.008
 20443       HAL2    497   POPC   H13S   5183       0.09      1.008
 20444       CTL2    497   POPC   C214   5184      -0.18     12.011
 20445       HAL2    497   POPC   H14R   5184       0.09      1.008
 20446       HAL2    497   POPC   H14S   5184       0.09      1.008
 20447       CTL2    497   POPC   C215   5185      -0.18     12.011
 20448       HAL2    497   POPC   H15R   5185       0.09      1.008
 20449       HAL2    497   POPC   H15S   5185       0.09      1.008
 20450       CTL2    497   POPC   C216   5186      -0.18     12.011
 20451       HAL2    497   POPC   H16R   5186       0.09      1.008
 20452       HAL2    497   POPC   H16S   5186       0.09      1.008
 20453       CTL2    497   POPC   C217   5187      -0.18     12.011
 20454       HAL2    497   POPC   H17R   5187       0.09      1.008
 20455       HAL2    497   POPC   H17S   5187       0.09      1.008
 20456       CTL3    497   POPC   C218   5188      -0.27     12.011
 20457       HAL3    497   POPC   H18R   5188       0.09      1.008
 20458       HAL3    497   POPC   H18S   5188       0.09      1.008
 20459       HAL3    497   POPC   H18T   5188       0.09      1.008
 20460       CTL2    497   POPC    C33   5189      -0.18     12.011
 20461       HAL2    497   POPC    H3X   5189       0.09      1.008
 20462       HAL2    497   POPC    H3Y   5189       0.09      1.008
 20463       CTL2    497   POPC    C34   5190      -0.18     12.011
 20464       HAL2    497   POPC    H4X   5190       0.09      1.008
 20465       HAL2    497   POPC    H4Y   5190       0.09      1.008
 20466       CTL2    497   POPC    C35   5191      -0.18     12.011
 20467       HAL2    497   POPC    H5X   5191       0.09      1.008
 20468       HAL2    497   POPC    H5Y   5191       0.09      1.008
 20469       CTL2    497   POPC    C36   5192      -0.18     12.011
 20470       HAL2    497   POPC    H6X   5192       0.09      1.008
 20471       HAL2    497   POPC    H6Y   5192       0.09      1.008
 20472       CTL2    497   POPC    C37   5193      -0.18     12.011
 20473       HAL2    497   POPC    H7X   5193       0.09      1.008
 20474       HAL2    497   POPC    H7Y   5193       0.09      1.008
 20475       CTL2    497   POPC    C38   5194      -0.18     12.011
 20476       HAL2    497   POPC    H8X   5194       0.09      1.008
 20477       HAL2    497   POPC    H8Y   5194       0.09      1.008
 20478       CTL2    497   POPC    C39   5195      -0.18     12.011
 20479       HAL2    497   POPC    H9X   5195       0.09      1.008
 20480       HAL2    497   POPC    H9Y   5195       0.09      1.008
 20481       CTL2    497   POPC   C310   5196      -0.18     12.011
 20482       HAL2    497   POPC   H10X   5196       0.09      1.008
 20483       HAL2    497   POPC   H10Y   5196       0.09      1.008
 20484       CTL2    497   POPC   C311   5197      -0.18     12.011
 20485       HAL2    497   POPC   H11X   5197       0.09      1.008
 20486       HAL2    497   POPC   H11Y   5197       0.09      1.008
 20487       CTL2    497   POPC   C312   5198      -0.18     12.011
 20488       HAL2    497   POPC   H12X   5198       0.09      1.008
 20489       HAL2    497   POPC   H12Y   5198       0.09      1.008
 20490       CTL2    497   POPC   C313   5199      -0.18     12.011
 20491       HAL2    497   POPC   H13X   5199       0.09      1.008
 20492       HAL2    497   POPC   H13Y   5199       0.09      1.008
 20493       CTL2    497   POPC   C314   5200      -0.18     12.011
 20494       HAL2    497   POPC   H14X   5200       0.09      1.008
 20495       HAL2    497   POPC   H14Y   5200       0.09      1.008
 20496       CTL2    497   POPC   C315   5201      -0.18     12.011
 20497       HAL2    497   POPC   H15X   5201       0.09      1.008
 20498       HAL2    497   POPC   H15Y   5201       0.09      1.008
 20499       CTL3    497   POPC   C316   5202      -0.27     12.011
 20500       HAL3    497   POPC   H16X   5202       0.09      1.008
 20501       HAL3    497   POPC   H16Y   5202       0.09      1.008
 20502       HAL3    497   POPC   H16Z   5202       0.09      1.008   ; qtot 0
; residue 498 POPC rtp POPC q  0.0
 20503        NTL    498   POPC      N   5203       -0.6     14.007
 20504       CTL2    498   POPC    C12   5203       -0.1     12.011
 20505         HL    498   POPC   H12A   5203       0.25      1.008
 20506         HL    498   POPC   H12B   5203       0.25      1.008
 20507       CTL5    498   POPC    C13   5203      -0.35     12.011
 20508         HL    498   POPC   H13A   5203       0.25      1.008
 20509         HL    498   POPC   H13B   5203       0.25      1.008
 20510         HL    498   POPC   H13C   5203       0.25      1.008
 20511       CTL5    498   POPC    C14   5203      -0.35     12.011
 20512         HL    498   POPC   H14A   5203       0.25      1.008
 20513         HL    498   POPC   H14B   5203       0.25      1.008
 20514         HL    498   POPC   H14C   5203       0.25      1.008
 20515       CTL5    498   POPC    C15   5203      -0.35     12.011
 20516         HL    498   POPC   H15A   5203       0.25      1.008
 20517         HL    498   POPC   H15B   5203       0.25      1.008
 20518         HL    498   POPC   H15C   5203       0.25      1.008
 20519       CTL2    498   POPC    C11   5204      -0.08     12.011
 20520       HAL2    498   POPC   H11A   5204       0.09      1.008
 20521       HAL2    498   POPC   H11B   5204       0.09      1.008
 20522         PL    498   POPC      P   5204        1.5     30.974
 20523        O2L    498   POPC    O13   5204      -0.78    15.9994
 20524        O2L    498   POPC    O14   5204      -0.78    15.9994
 20525       OSLP    498   POPC    O12   5204      -0.57    15.9994
 20526       OSLP    498   POPC    O11   5204      -0.57    15.9994
 20527       CTL2    498   POPC     C1   5204      -0.08     12.011
 20528       HAL2    498   POPC     HA   5204       0.09      1.008
 20529       HAL2    498   POPC     HB   5204       0.09      1.008
 20530       CTL1    498   POPC     C2   5205       0.17     12.011
 20531       HAL1    498   POPC     HS   5205       0.09      1.008
 20532        OSL    498   POPC    O21   5205      -0.49    15.9994
 20533         CL    498   POPC    C21   5205        0.9     12.011
 20534        OBL    498   POPC    O22   5205      -0.63    15.9994
 20535       CTL2    498   POPC    C22   5205      -0.22     12.011
 20536       HAL2    498   POPC    H2R   5205       0.09      1.008
 20537       HAL2    498   POPC    H2S   5205       0.09      1.008
 20538       CTL2    498   POPC     C3   5206       0.08     12.011
 20539       HAL2    498   POPC     HX   5206       0.09      1.008
 20540       HAL2    498   POPC     HY   5206       0.09      1.008
 20541        OSL    498   POPC    O31   5206      -0.49    15.9994
 20542         CL    498   POPC    C31   5206        0.9     12.011
 20543        OBL    498   POPC    O32   5206      -0.63    15.9994
 20544       CTL2    498   POPC    C32   5206      -0.22     12.011
 20545       HAL2    498   POPC    H2X   5206       0.09      1.008
 20546       HAL2    498   POPC    H2Y   5206       0.09      1.008
 20547       CTL2    498   POPC    C23   5207      -0.18     12.011
 20548       HAL2    498   POPC    H3R   5207       0.09      1.008
 20549       HAL2    498   POPC    H3S   5207       0.09      1.008
 20550       CTL2    498   POPC    C24   5208      -0.18     12.011
 20551       HAL2    498   POPC    H4R   5208       0.09      1.008
 20552       HAL2    498   POPC    H4S   5208       0.09      1.008
 20553       CTL2    498   POPC    C25   5209      -0.18     12.011
 20554       HAL2    498   POPC    H5R   5209       0.09      1.008
 20555       HAL2    498   POPC    H5S   5209       0.09      1.008
 20556       CTL2    498   POPC    C26   5210      -0.18     12.011
 20557       HAL2    498   POPC    H6R   5210       0.09      1.008
 20558       HAL2    498   POPC    H6S   5210       0.09      1.008
 20559       CTL2    498   POPC    C27   5211      -0.18     12.011
 20560       HAL2    498   POPC    H7R   5211       0.09      1.008
 20561       HAL2    498   POPC    H7S   5211       0.09      1.008
 20562       CTL2    498   POPC    C28   5212      -0.18     12.011
 20563       HAL2    498   POPC    H8R   5212       0.09      1.008
 20564       HAL2    498   POPC    H8S   5212       0.09      1.008
 20565       CEL1    498   POPC    C29   5213      -0.15     12.011
 20566       HEL1    498   POPC    H91   5213       0.15      1.008
 20567       CEL1    498   POPC   C210   5214      -0.15     12.011
 20568       HEL1    498   POPC   H101   5214       0.15      1.008
 20569       CTL2    498   POPC   C211   5215      -0.18     12.011
 20570       HAL2    498   POPC   H11R   5215       0.09      1.008
 20571       HAL2    498   POPC   H11S   5215       0.09      1.008
 20572       CTL2    498   POPC   C212   5216      -0.18     12.011
 20573       HAL2    498   POPC   H12R   5216       0.09      1.008
 20574       HAL2    498   POPC   H12S   5216       0.09      1.008
 20575       CTL2    498   POPC   C213   5217      -0.18     12.011
 20576       HAL2    498   POPC   H13R   5217       0.09      1.008
 20577       HAL2    498   POPC   H13S   5217       0.09      1.008
 20578       CTL2    498   POPC   C214   5218      -0.18     12.011
 20579       HAL2    498   POPC   H14R   5218       0.09      1.008
 20580       HAL2    498   POPC   H14S   5218       0.09      1.008
 20581       CTL2    498   POPC   C215   5219      -0.18     12.011
 20582       HAL2    498   POPC   H15R   5219       0.09      1.008
 20583       HAL2    498   POPC   H15S   5219       0.09      1.008
 20584       CTL2    498   POPC   C216   5220      -0.18     12.011
 20585       HAL2    498   POPC   H16R   5220       0.09      1.008
 20586       HAL2    498   POPC   H16S   5220       0.09      1.008
 20587       CTL2    498   POPC   C217   5221      -0.18     12.011
 20588       HAL2    498   POPC   H17R   5221       0.09      1.008
 20589       HAL2    498   POPC   H17S   5221       0.09      1.008
 20590       CTL3    498   POPC   C218   5222      -0.27     12.011
 20591       HAL3    498   POPC   H18R   5222       0.09      1.008
 20592       HAL3    498   POPC   H18S   5222       0.09      1.008
 20593       HAL3    498   POPC   H18T   5222       0.09      1.008
 20594       CTL2    498   POPC    C33   5223      -0.18     12.011
 20595       HAL2    498   POPC    H3X   5223       0.09      1.008
 20596       HAL2    498   POPC    H3Y   5223       0.09      1.008
 20597       CTL2    498   POPC    C34   5224      -0.18     12.011
 20598       HAL2    498   POPC    H4X   5224       0.09      1.008
 20599       HAL2    498   POPC    H4Y   5224       0.09      1.008
 20600       CTL2    498   POPC    C35   5225      -0.18     12.011
 20601       HAL2    498   POPC    H5X   5225       0.09      1.008
 20602       HAL2    498   POPC    H5Y   5225       0.09      1.008
 20603       CTL2    498   POPC    C36   5226      -0.18     12.011
 20604       HAL2    498   POPC    H6X   5226       0.09      1.008
 20605       HAL2    498   POPC    H6Y   5226       0.09      1.008
 20606       CTL2    498   POPC    C37   5227      -0.18     12.011
 20607       HAL2    498   POPC    H7X   5227       0.09      1.008
 20608       HAL2    498   POPC    H7Y   5227       0.09      1.008
 20609       CTL2    498   POPC    C38   5228      -0.18     12.011
 20610       HAL2    498   POPC    H8X   5228       0.09      1.008
 20611       HAL2    498   POPC    H8Y   5228       0.09      1.008
 20612       CTL2    498   POPC    C39   5229      -0.18     12.011
 20613       HAL2    498   POPC    H9X   5229       0.09      1.008
 20614       HAL2    498   POPC    H9Y   5229       0.09      1.008
 20615       CTL2    498   POPC   C310   5230      -0.18     12.011
 20616       HAL2    498   POPC   H10X   5230       0.09      1.008
 20617       HAL2    498   POPC   H10Y   5230       0.09      1.008
 20618       CTL2    498   POPC   C311   5231      -0.18     12.011
 20619       HAL2    498   POPC   H11X   5231       0.09      1.008
 20620       HAL2    498   POPC   H11Y   5231       0.09      1.008
 20621       CTL2    498   POPC   C312   5232      -0.18     12.011
 20622       HAL2    498   POPC   H12X   5232       0.09      1.008
 20623       HAL2    498   POPC   H12Y   5232       0.09      1.008
 20624       CTL2    498   POPC   C313   5233      -0.18     12.011
 20625       HAL2    498   POPC   H13X   5233       0.09      1.008
 20626       HAL2    498   POPC   H13Y   5233       0.09      1.008
 20627       CTL2    498   POPC   C314   5234      -0.18     12.011
 20628       HAL2    498   POPC   H14X   5234       0.09      1.008
 20629       HAL2    498   POPC   H14Y   5234       0.09      1.008
 20630       CTL2    498   POPC   C315   5235      -0.18     12.011
 20631       HAL2    498   POPC   H15X   5235       0.09      1.008
 20632       HAL2    498   POPC   H15Y   5235       0.09      1.008
 20633       CTL3    498   POPC   C316   5236      -0.27     12.011
 20634       HAL3    498   POPC   H16X   5236       0.09      1.008
 20635       HAL3    498   POPC   H16Y   5236       0.09      1.008
 20636       HAL3    498   POPC   H16Z   5236       0.09      1.008   ; qtot 0
; residue 499 POPC rtp POPC q  0.0
 20637        NTL    499   POPC      N   5237       -0.6     14.007
 20638       CTL2    499   POPC    C12   5237       -0.1     12.011
 20639         HL    499   POPC   H12A   5237       0.25      1.008
 20640         HL    499   POPC   H12B   5237       0.25      1.008
 20641       CTL5    499   POPC    C13   5237      -0.35     12.011
 20642         HL    499   POPC   H13A   5237       0.25      1.008
 20643         HL    499   POPC   H13B   5237       0.25      1.008
 20644         HL    499   POPC   H13C   5237       0.25      1.008
 20645       CTL5    499   POPC    C14   5237      -0.35     12.011
 20646         HL    499   POPC   H14A   5237       0.25      1.008
 20647         HL    499   POPC   H14B   5237       0.25      1.008
 20648         HL    499   POPC   H14C   5237       0.25      1.008
 20649       CTL5    499   POPC    C15   5237      -0.35     12.011
 20650         HL    499   POPC   H15A   5237       0.25      1.008
 20651         HL    499   POPC   H15B   5237       0.25      1.008
 20652         HL    499   POPC   H15C   5237       0.25      1.008
 20653       CTL2    499   POPC    C11   5238      -0.08     12.011
 20654       HAL2    499   POPC   H11A   5238       0.09      1.008
 20655       HAL2    499   POPC   H11B   5238       0.09      1.008
 20656         PL    499   POPC      P   5238        1.5     30.974
 20657        O2L    499   POPC    O13   5238      -0.78    15.9994
 20658        O2L    499   POPC    O14   5238      -0.78    15.9994
 20659       OSLP    499   POPC    O12   5238      -0.57    15.9994
 20660       OSLP    499   POPC    O11   5238      -0.57    15.9994
 20661       CTL2    499   POPC     C1   5238      -0.08     12.011
 20662       HAL2    499   POPC     HA   5238       0.09      1.008
 20663       HAL2    499   POPC     HB   5238       0.09      1.008
 20664       CTL1    499   POPC     C2   5239       0.17     12.011
 20665       HAL1    499   POPC     HS   5239       0.09      1.008
 20666        OSL    499   POPC    O21   5239      -0.49    15.9994
 20667         CL    499   POPC    C21   5239        0.9     12.011
 20668        OBL    499   POPC    O22   5239      -0.63    15.9994
 20669       CTL2    499   POPC    C22   5239      -0.22     12.011
 20670       HAL2    499   POPC    H2R   5239       0.09      1.008
 20671       HAL2    499   POPC    H2S   5239       0.09      1.008
 20672       CTL2    499   POPC     C3   5240       0.08     12.011
 20673       HAL2    499   POPC     HX   5240       0.09      1.008
 20674       HAL2    499   POPC     HY   5240       0.09      1.008
 20675        OSL    499   POPC    O31   5240      -0.49    15.9994
 20676         CL    499   POPC    C31   5240        0.9     12.011
 20677        OBL    499   POPC    O32   5240      -0.63    15.9994
 20678       CTL2    499   POPC    C32   5240      -0.22     12.011
 20679       HAL2    499   POPC    H2X   5240       0.09      1.008
 20680       HAL2    499   POPC    H2Y   5240       0.09      1.008
 20681       CTL2    499   POPC    C23   5241      -0.18     12.011
 20682       HAL2    499   POPC    H3R   5241       0.09      1.008
 20683       HAL2    499   POPC    H3S   5241       0.09      1.008
 20684       CTL2    499   POPC    C24   5242      -0.18     12.011
 20685       HAL2    499   POPC    H4R   5242       0.09      1.008
 20686       HAL2    499   POPC    H4S   5242       0.09      1.008
 20687       CTL2    499   POPC    C25   5243      -0.18     12.011
 20688       HAL2    499   POPC    H5R   5243       0.09      1.008
 20689       HAL2    499   POPC    H5S   5243       0.09      1.008
 20690       CTL2    499   POPC    C26   5244      -0.18     12.011
 20691       HAL2    499   POPC    H6R   5244       0.09      1.008
 20692       HAL2    499   POPC    H6S   5244       0.09      1.008
 20693       CTL2    499   POPC    C27   5245      -0.18     12.011
 20694       HAL2    499   POPC    H7R   5245       0.09      1.008
 20695       HAL2    499   POPC    H7S   5245       0.09      1.008
 20696       CTL2    499   POPC    C28   5246      -0.18     12.011
 20697       HAL2    499   POPC    H8R   5246       0.09      1.008
 20698       HAL2    499   POPC    H8S   5246       0.09      1.008
 20699       CEL1    499   POPC    C29   5247      -0.15     12.011
 20700       HEL1    499   POPC    H91   5247       0.15      1.008
 20701       CEL1    499   POPC   C210   5248      -0.15     12.011
 20702       HEL1    499   POPC   H101   5248       0.15      1.008
 20703       CTL2    499   POPC   C211   5249      -0.18     12.011
 20704       HAL2    499   POPC   H11R   5249       0.09      1.008
 20705       HAL2    499   POPC   H11S   5249       0.09      1.008
 20706       CTL2    499   POPC   C212   5250      -0.18     12.011
 20707       HAL2    499   POPC   H12R   5250       0.09      1.008
 20708       HAL2    499   POPC   H12S   5250       0.09      1.008
 20709       CTL2    499   POPC   C213   5251      -0.18     12.011
 20710       HAL2    499   POPC   H13R   5251       0.09      1.008
 20711       HAL2    499   POPC   H13S   5251       0.09      1.008
 20712       CTL2    499   POPC   C214   5252      -0.18     12.011
 20713       HAL2    499   POPC   H14R   5252       0.09      1.008
 20714       HAL2    499   POPC   H14S   5252       0.09      1.008
 20715       CTL2    499   POPC   C215   5253      -0.18     12.011
 20716       HAL2    499   POPC   H15R   5253       0.09      1.008
 20717       HAL2    499   POPC   H15S   5253       0.09      1.008
 20718       CTL2    499   POPC   C216   5254      -0.18     12.011
 20719       HAL2    499   POPC   H16R   5254       0.09      1.008
 20720       HAL2    499   POPC   H16S   5254       0.09      1.008
 20721       CTL2    499   POPC   C217   5255      -0.18     12.011
 20722       HAL2    499   POPC   H17R   5255       0.09      1.008
 20723       HAL2    499   POPC   H17S   5255       0.09      1.008
 20724       CTL3    499   POPC   C218   5256      -0.27     12.011
 20725       HAL3    499   POPC   H18R   5256       0.09      1.008
 20726       HAL3    499   POPC   H18S   5256       0.09      1.008
 20727       HAL3    499   POPC   H18T   5256       0.09      1.008
 20728       CTL2    499   POPC    C33   5257      -0.18     12.011
 20729       HAL2    499   POPC    H3X   5257       0.09      1.008
 20730       HAL2    499   POPC    H3Y   5257       0.09      1.008
 20731       CTL2    499   POPC    C34   5258      -0.18     12.011
 20732       HAL2    499   POPC    H4X   5258       0.09      1.008
 20733       HAL2    499   POPC    H4Y   5258       0.09      1.008
 20734       CTL2    499   POPC    C35   5259      -0.18     12.011
 20735       HAL2    499   POPC    H5X   5259       0.09      1.008
 20736       HAL2    499   POPC    H5Y   5259       0.09      1.008
 20737       CTL2    499   POPC    C36   5260      -0.18     12.011
 20738       HAL2    499   POPC    H6X   5260       0.09      1.008
 20739       HAL2    499   POPC    H6Y   5260       0.09      1.008
 20740       CTL2    499   POPC    C37   5261      -0.18     12.011
 20741       HAL2    499   POPC    H7X   5261       0.09      1.008
 20742       HAL2    499   POPC    H7Y   5261       0.09      1.008
 20743       CTL2    499   POPC    C38   5262      -0.18     12.011
 20744       HAL2    499   POPC    H8X   5262       0.09      1.008
 20745       HAL2    499   POPC    H8Y   5262       0.09      1.008
 20746       CTL2    499   POPC    C39   5263      -0.18     12.011
 20747       HAL2    499   POPC    H9X   5263       0.09      1.008
 20748       HAL2    499   POPC    H9Y   5263       0.09      1.008
 20749       CTL2    499   POPC   C310   5264      -0.18     12.011
 20750       HAL2    499   POPC   H10X   5264       0.09      1.008
 20751       HAL2    499   POPC   H10Y   5264       0.09      1.008
 20752       CTL2    499   POPC   C311   5265      -0.18     12.011
 20753       HAL2    499   POPC   H11X   5265       0.09      1.008
 20754       HAL2    499   POPC   H11Y   5265       0.09      1.008
 20755       CTL2    499   POPC   C312   5266      -0.18     12.011
 20756       HAL2    499   POPC   H12X   5266       0.09      1.008
 20757       HAL2    499   POPC   H12Y   5266       0.09      1.008
 20758       CTL2    499   POPC   C313   5267      -0.18     12.011
 20759       HAL2    499   POPC   H13X   5267       0.09      1.008
 20760       HAL2    499   POPC   H13Y   5267       0.09      1.008
 20761       CTL2    499   POPC   C314   5268      -0.18     12.011
 20762       HAL2    499   POPC   H14X   5268       0.09      1.008
 20763       HAL2    499   POPC   H14Y   5268       0.09      1.008
 20764       CTL2    499   POPC   C315   5269      -0.18     12.011
 20765       HAL2    499   POPC   H15X   5269       0.09      1.008
 20766       HAL2    499   POPC   H15Y   5269       0.09      1.008
 20767       CTL3    499   POPC   C316   5270      -0.27     12.011
 20768       HAL3    499   POPC   H16X   5270       0.09      1.008
 20769       HAL3    499   POPC   H16Y   5270       0.09      1.008
 20770       HAL3    499   POPC   H16Z   5270       0.09      1.008   ; qtot 0
; residue 500 POPC rtp POPC q  0.0
 20771        NTL    500   POPC      N   5271       -0.6     14.007
 20772       CTL2    500   POPC    C12   5271       -0.1     12.011
 20773         HL    500   POPC   H12A   5271       0.25      1.008
 20774         HL    500   POPC   H12B   5271       0.25      1.008
 20775       CTL5    500   POPC    C13   5271      -0.35     12.011
 20776         HL    500   POPC   H13A   5271       0.25      1.008
 20777         HL    500   POPC   H13B   5271       0.25      1.008
 20778         HL    500   POPC   H13C   5271       0.25      1.008
 20779       CTL5    500   POPC    C14   5271      -0.35     12.011
 20780         HL    500   POPC   H14A   5271       0.25      1.008
 20781         HL    500   POPC   H14B   5271       0.25      1.008
 20782         HL    500   POPC   H14C   5271       0.25      1.008
 20783       CTL5    500   POPC    C15   5271      -0.35     12.011
 20784         HL    500   POPC   H15A   5271       0.25      1.008
 20785         HL    500   POPC   H15B   5271       0.25      1.008
 20786         HL    500   POPC   H15C   5271       0.25      1.008
 20787       CTL2    500   POPC    C11   5272      -0.08     12.011
 20788       HAL2    500   POPC   H11A   5272       0.09      1.008
 20789       HAL2    500   POPC   H11B   5272       0.09      1.008
 20790         PL    500   POPC      P   5272        1.5     30.974
 20791        O2L    500   POPC    O13   5272      -0.78    15.9994
 20792        O2L    500   POPC    O14   5272      -0.78    15.9994
 20793       OSLP    500   POPC    O12   5272      -0.57    15.9994
 20794       OSLP    500   POPC    O11   5272      -0.57    15.9994
 20795       CTL2    500   POPC     C1   5272      -0.08     12.011
 20796       HAL2    500   POPC     HA   5272       0.09      1.008
 20797       HAL2    500   POPC     HB   5272       0.09      1.008
 20798       CTL1    500   POPC     C2   5273       0.17     12.011
 20799       HAL1    500   POPC     HS   5273       0.09      1.008
 20800        OSL    500   POPC    O21   5273      -0.49    15.9994
 20801         CL    500   POPC    C21   5273        0.9     12.011
 20802        OBL    500   POPC    O22   5273      -0.63    15.9994
 20803       CTL2    500   POPC    C22   5273      -0.22     12.011
 20804       HAL2    500   POPC    H2R   5273       0.09      1.008
 20805       HAL2    500   POPC    H2S   5273       0.09      1.008
 20806       CTL2    500   POPC     C3   5274       0.08     12.011
 20807       HAL2    500   POPC     HX   5274       0.09      1.008
 20808       HAL2    500   POPC     HY   5274       0.09      1.008
 20809        OSL    500   POPC    O31   5274      -0.49    15.9994
 20810         CL    500   POPC    C31   5274        0.9     12.011
 20811        OBL    500   POPC    O32   5274      -0.63    15.9994
 20812       CTL2    500   POPC    C32   5274      -0.22     12.011
 20813       HAL2    500   POPC    H2X   5274       0.09      1.008
 20814       HAL2    500   POPC    H2Y   5274       0.09      1.008
 20815       CTL2    500   POPC    C23   5275      -0.18     12.011
 20816       HAL2    500   POPC    H3R   5275       0.09      1.008
 20817       HAL2    500   POPC    H3S   5275       0.09      1.008
 20818       CTL2    500   POPC    C24   5276      -0.18     12.011
 20819       HAL2    500   POPC    H4R   5276       0.09      1.008
 20820       HAL2    500   POPC    H4S   5276       0.09      1.008
 20821       CTL2    500   POPC    C25   5277      -0.18     12.011
 20822       HAL2    500   POPC    H5R   5277       0.09      1.008
 20823       HAL2    500   POPC    H5S   5277       0.09      1.008
 20824       CTL2    500   POPC    C26   5278      -0.18     12.011
 20825       HAL2    500   POPC    H6R   5278       0.09      1.008
 20826       HAL2    500   POPC    H6S   5278       0.09      1.008
 20827       CTL2    500   POPC    C27   5279      -0.18     12.011
 20828       HAL2    500   POPC    H7R   5279       0.09      1.008
 20829       HAL2    500   POPC    H7S   5279       0.09      1.008
 20830       CTL2    500   POPC    C28   5280      -0.18     12.011
 20831       HAL2    500   POPC    H8R   5280       0.09      1.008
 20832       HAL2    500   POPC    H8S   5280       0.09      1.008
 20833       CEL1    500   POPC    C29   5281      -0.15     12.011
 20834       HEL1    500   POPC    H91   5281       0.15      1.008
 20835       CEL1    500   POPC   C210   5282      -0.15     12.011
 20836       HEL1    500   POPC   H101   5282       0.15      1.008
 20837       CTL2    500   POPC   C211   5283      -0.18     12.011
 20838       HAL2    500   POPC   H11R   5283       0.09      1.008
 20839       HAL2    500   POPC   H11S   5283       0.09      1.008
 20840       CTL2    500   POPC   C212   5284      -0.18     12.011
 20841       HAL2    500   POPC   H12R   5284       0.09      1.008
 20842       HAL2    500   POPC   H12S   5284       0.09      1.008
 20843       CTL2    500   POPC   C213   5285      -0.18     12.011
 20844       HAL2    500   POPC   H13R   5285       0.09      1.008
 20845       HAL2    500   POPC   H13S   5285       0.09      1.008
 20846       CTL2    500   POPC   C214   5286      -0.18     12.011
 20847       HAL2    500   POPC   H14R   5286       0.09      1.008
 20848       HAL2    500   POPC   H14S   5286       0.09      1.008
 20849       CTL2    500   POPC   C215   5287      -0.18     12.011
 20850       HAL2    500   POPC   H15R   5287       0.09      1.008
 20851       HAL2    500   POPC   H15S   5287       0.09      1.008
 20852       CTL2    500   POPC   C216   5288      -0.18     12.011
 20853       HAL2    500   POPC   H16R   5288       0.09      1.008
 20854       HAL2    500   POPC   H16S   5288       0.09      1.008
 20855       CTL2    500   POPC   C217   5289      -0.18     12.011
 20856       HAL2    500   POPC   H17R   5289       0.09      1.008
 20857       HAL2    500   POPC   H17S   5289       0.09      1.008
 20858       CTL3    500   POPC   C218   5290      -0.27     12.011
 20859       HAL3    500   POPC   H18R   5290       0.09      1.008
 20860       HAL3    500   POPC   H18S   5290       0.09      1.008
 20861       HAL3    500   POPC   H18T   5290       0.09      1.008
 20862       CTL2    500   POPC    C33   5291      -0.18     12.011
 20863       HAL2    500   POPC    H3X   5291       0.09      1.008
 20864       HAL2    500   POPC    H3Y   5291       0.09      1.008
 20865       CTL2    500   POPC    C34   5292      -0.18     12.011
 20866       HAL2    500   POPC    H4X   5292       0.09      1.008
 20867       HAL2    500   POPC    H4Y   5292       0.09      1.008
 20868       CTL2    500   POPC    C35   5293      -0.18     12.011
 20869       HAL2    500   POPC    H5X   5293       0.09      1.008
 20870       HAL2    500   POPC    H5Y   5293       0.09      1.008
 20871       CTL2    500   POPC    C36   5294      -0.18     12.011
 20872       HAL2    500   POPC    H6X   5294       0.09      1.008
 20873       HAL2    500   POPC    H6Y   5294       0.09      1.008
 20874       CTL2    500   POPC    C37   5295      -0.18     12.011
 20875       HAL2    500   POPC    H7X   5295       0.09      1.008
 20876       HAL2    500   POPC    H7Y   5295       0.09      1.008
 20877       CTL2    500   POPC    C38   5296      -0.18     12.011
 20878       HAL2    500   POPC    H8X   5296       0.09      1.008
 20879       HAL2    500   POPC    H8Y   5296       0.09      1.008
 20880       CTL2    500   POPC    C39   5297      -0.18     12.011
 20881       HAL2    500   POPC    H9X   5297       0.09      1.008
 20882       HAL2    500   POPC    H9Y   5297       0.09      1.008
 20883       CTL2    500   POPC   C310   5298      -0.18     12.011
 20884       HAL2    500   POPC   H10X   5298       0.09      1.008
 20885       HAL2    500   POPC   H10Y   5298       0.09      1.008
 20886       CTL2    500   POPC   C311   5299      -0.18     12.011
 20887       HAL2    500   POPC   H11X   5299       0.09      1.008
 20888       HAL2    500   POPC   H11Y   5299       0.09      1.008
 20889       CTL2    500   POPC   C312   5300      -0.18     12.011
 20890       HAL2    500   POPC   H12X   5300       0.09      1.008
 20891       HAL2    500   POPC   H12Y   5300       0.09      1.008
 20892       CTL2    500   POPC   C313   5301      -0.18     12.011
 20893       HAL2    500   POPC   H13X   5301       0.09      1.008
 20894       HAL2    500   POPC   H13Y   5301       0.09      1.008
 20895       CTL2    500   POPC   C314   5302      -0.18     12.011
 20896       HAL2    500   POPC   H14X   5302       0.09      1.008
 20897       HAL2    500   POPC   H14Y   5302       0.09      1.008
 20898       CTL2    500   POPC   C315   5303      -0.18     12.011
 20899       HAL2    500   POPC   H15X   5303       0.09      1.008
 20900       HAL2    500   POPC   H15Y   5303       0.09      1.008
 20901       CTL3    500   POPC   C316   5304      -0.27     12.011
 20902       HAL3    500   POPC   H16X   5304       0.09      1.008
 20903       HAL3    500   POPC   H16Y   5304       0.09      1.008
 20904       HAL3    500   POPC   H16Z   5304       0.09      1.008   ; qtot 0
; residue 501 POPC rtp POPC q  0.0
 20905        NTL    501   POPC      N   5305       -0.6     14.007
 20906       CTL2    501   POPC    C12   5305       -0.1     12.011
 20907         HL    501   POPC   H12A   5305       0.25      1.008
 20908         HL    501   POPC   H12B   5305       0.25      1.008
 20909       CTL5    501   POPC    C13   5305      -0.35     12.011
 20910         HL    501   POPC   H13A   5305       0.25      1.008
 20911         HL    501   POPC   H13B   5305       0.25      1.008
 20912         HL    501   POPC   H13C   5305       0.25      1.008
 20913       CTL5    501   POPC    C14   5305      -0.35     12.011
 20914         HL    501   POPC   H14A   5305       0.25      1.008
 20915         HL    501   POPC   H14B   5305       0.25      1.008
 20916         HL    501   POPC   H14C   5305       0.25      1.008
 20917       CTL5    501   POPC    C15   5305      -0.35     12.011
 20918         HL    501   POPC   H15A   5305       0.25      1.008
 20919         HL    501   POPC   H15B   5305       0.25      1.008
 20920         HL    501   POPC   H15C   5305       0.25      1.008
 20921       CTL2    501   POPC    C11   5306      -0.08     12.011
 20922       HAL2    501   POPC   H11A   5306       0.09      1.008
 20923       HAL2    501   POPC   H11B   5306       0.09      1.008
 20924         PL    501   POPC      P   5306        1.5     30.974
 20925        O2L    501   POPC    O13   5306      -0.78    15.9994
 20926        O2L    501   POPC    O14   5306      -0.78    15.9994
 20927       OSLP    501   POPC    O12   5306      -0.57    15.9994
 20928       OSLP    501   POPC    O11   5306      -0.57    15.9994
 20929       CTL2    501   POPC     C1   5306      -0.08     12.011
 20930       HAL2    501   POPC     HA   5306       0.09      1.008
 20931       HAL2    501   POPC     HB   5306       0.09      1.008
 20932       CTL1    501   POPC     C2   5307       0.17     12.011
 20933       HAL1    501   POPC     HS   5307       0.09      1.008
 20934        OSL    501   POPC    O21   5307      -0.49    15.9994
 20935         CL    501   POPC    C21   5307        0.9     12.011
 20936        OBL    501   POPC    O22   5307      -0.63    15.9994
 20937       CTL2    501   POPC    C22   5307      -0.22     12.011
 20938       HAL2    501   POPC    H2R   5307       0.09      1.008
 20939       HAL2    501   POPC    H2S   5307       0.09      1.008
 20940       CTL2    501   POPC     C3   5308       0.08     12.011
 20941       HAL2    501   POPC     HX   5308       0.09      1.008
 20942       HAL2    501   POPC     HY   5308       0.09      1.008
 20943        OSL    501   POPC    O31   5308      -0.49    15.9994
 20944         CL    501   POPC    C31   5308        0.9     12.011
 20945        OBL    501   POPC    O32   5308      -0.63    15.9994
 20946       CTL2    501   POPC    C32   5308      -0.22     12.011
 20947       HAL2    501   POPC    H2X   5308       0.09      1.008
 20948       HAL2    501   POPC    H2Y   5308       0.09      1.008
 20949       CTL2    501   POPC    C23   5309      -0.18     12.011
 20950       HAL2    501   POPC    H3R   5309       0.09      1.008
 20951       HAL2    501   POPC    H3S   5309       0.09      1.008
 20952       CTL2    501   POPC    C24   5310      -0.18     12.011
 20953       HAL2    501   POPC    H4R   5310       0.09      1.008
 20954       HAL2    501   POPC    H4S   5310       0.09      1.008
 20955       CTL2    501   POPC    C25   5311      -0.18     12.011
 20956       HAL2    501   POPC    H5R   5311       0.09      1.008
 20957       HAL2    501   POPC    H5S   5311       0.09      1.008
 20958       CTL2    501   POPC    C26   5312      -0.18     12.011
 20959       HAL2    501   POPC    H6R   5312       0.09      1.008
 20960       HAL2    501   POPC    H6S   5312       0.09      1.008
 20961       CTL2    501   POPC    C27   5313      -0.18     12.011
 20962       HAL2    501   POPC    H7R   5313       0.09      1.008
 20963       HAL2    501   POPC    H7S   5313       0.09      1.008
 20964       CTL2    501   POPC    C28   5314      -0.18     12.011
 20965       HAL2    501   POPC    H8R   5314       0.09      1.008
 20966       HAL2    501   POPC    H8S   5314       0.09      1.008
 20967       CEL1    501   POPC    C29   5315      -0.15     12.011
 20968       HEL1    501   POPC    H91   5315       0.15      1.008
 20969       CEL1    501   POPC   C210   5316      -0.15     12.011
 20970       HEL1    501   POPC   H101   5316       0.15      1.008
 20971       CTL2    501   POPC   C211   5317      -0.18     12.011
 20972       HAL2    501   POPC   H11R   5317       0.09      1.008
 20973       HAL2    501   POPC   H11S   5317       0.09      1.008
 20974       CTL2    501   POPC   C212   5318      -0.18     12.011
 20975       HAL2    501   POPC   H12R   5318       0.09      1.008
 20976       HAL2    501   POPC   H12S   5318       0.09      1.008
 20977       CTL2    501   POPC   C213   5319      -0.18     12.011
 20978       HAL2    501   POPC   H13R   5319       0.09      1.008
 20979       HAL2    501   POPC   H13S   5319       0.09      1.008
 20980       CTL2    501   POPC   C214   5320      -0.18     12.011
 20981       HAL2    501   POPC   H14R   5320       0.09      1.008
 20982       HAL2    501   POPC   H14S   5320       0.09      1.008
 20983       CTL2    501   POPC   C215   5321      -0.18     12.011
 20984       HAL2    501   POPC   H15R   5321       0.09      1.008
 20985       HAL2    501   POPC   H15S   5321       0.09      1.008
 20986       CTL2    501   POPC   C216   5322      -0.18     12.011
 20987       HAL2    501   POPC   H16R   5322       0.09      1.008
 20988       HAL2    501   POPC   H16S   5322       0.09      1.008
 20989       CTL2    501   POPC   C217   5323      -0.18     12.011
 20990       HAL2    501   POPC   H17R   5323       0.09      1.008
 20991       HAL2    501   POPC   H17S   5323       0.09      1.008
 20992       CTL3    501   POPC   C218   5324      -0.27     12.011
 20993       HAL3    501   POPC   H18R   5324       0.09      1.008
 20994       HAL3    501   POPC   H18S   5324       0.09      1.008
 20995       HAL3    501   POPC   H18T   5324       0.09      1.008
 20996       CTL2    501   POPC    C33   5325      -0.18     12.011
 20997       HAL2    501   POPC    H3X   5325       0.09      1.008
 20998       HAL2    501   POPC    H3Y   5325       0.09      1.008
 20999       CTL2    501   POPC    C34   5326      -0.18     12.011
 21000       HAL2    501   POPC    H4X   5326       0.09      1.008
 21001       HAL2    501   POPC    H4Y   5326       0.09      1.008
 21002       CTL2    501   POPC    C35   5327      -0.18     12.011
 21003       HAL2    501   POPC    H5X   5327       0.09      1.008
 21004       HAL2    501   POPC    H5Y   5327       0.09      1.008
 21005       CTL2    501   POPC    C36   5328      -0.18     12.011
 21006       HAL2    501   POPC    H6X   5328       0.09      1.008
 21007       HAL2    501   POPC    H6Y   5328       0.09      1.008
 21008       CTL2    501   POPC    C37   5329      -0.18     12.011
 21009       HAL2    501   POPC    H7X   5329       0.09      1.008
 21010       HAL2    501   POPC    H7Y   5329       0.09      1.008
 21011       CTL2    501   POPC    C38   5330      -0.18     12.011
 21012       HAL2    501   POPC    H8X   5330       0.09      1.008
 21013       HAL2    501   POPC    H8Y   5330       0.09      1.008
 21014       CTL2    501   POPC    C39   5331      -0.18     12.011
 21015       HAL2    501   POPC    H9X   5331       0.09      1.008
 21016       HAL2    501   POPC    H9Y   5331       0.09      1.008
 21017       CTL2    501   POPC   C310   5332      -0.18     12.011
 21018       HAL2    501   POPC   H10X   5332       0.09      1.008
 21019       HAL2    501   POPC   H10Y   5332       0.09      1.008
 21020       CTL2    501   POPC   C311   5333      -0.18     12.011
 21021       HAL2    501   POPC   H11X   5333       0.09      1.008
 21022       HAL2    501   POPC   H11Y   5333       0.09      1.008
 21023       CTL2    501   POPC   C312   5334      -0.18     12.011
 21024       HAL2    501   POPC   H12X   5334       0.09      1.008
 21025       HAL2    501   POPC   H12Y   5334       0.09      1.008
 21026       CTL2    501   POPC   C313   5335      -0.18     12.011
 21027       HAL2    501   POPC   H13X   5335       0.09      1.008
 21028       HAL2    501   POPC   H13Y   5335       0.09      1.008
 21029       CTL2    501   POPC   C314   5336      -0.18     12.011
 21030       HAL2    501   POPC   H14X   5336       0.09      1.008
 21031       HAL2    501   POPC   H14Y   5336       0.09      1.008
 21032       CTL2    501   POPC   C315   5337      -0.18     12.011
 21033       HAL2    501   POPC   H15X   5337       0.09      1.008
 21034       HAL2    501   POPC   H15Y   5337       0.09      1.008
 21035       CTL3    501   POPC   C316   5338      -0.27     12.011
 21036       HAL3    501   POPC   H16X   5338       0.09      1.008
 21037       HAL3    501   POPC   H16Y   5338       0.09      1.008
 21038       HAL3    501   POPC   H16Z   5338       0.09      1.008   ; qtot 0
; residue 502 POPC rtp POPC q  0.0
 21039        NTL    502   POPC      N   5339       -0.6     14.007
 21040       CTL2    502   POPC    C12   5339       -0.1     12.011
 21041         HL    502   POPC   H12A   5339       0.25      1.008
 21042         HL    502   POPC   H12B   5339       0.25      1.008
 21043       CTL5    502   POPC    C13   5339      -0.35     12.011
 21044         HL    502   POPC   H13A   5339       0.25      1.008
 21045         HL    502   POPC   H13B   5339       0.25      1.008
 21046         HL    502   POPC   H13C   5339       0.25      1.008
 21047       CTL5    502   POPC    C14   5339      -0.35     12.011
 21048         HL    502   POPC   H14A   5339       0.25      1.008
 21049         HL    502   POPC   H14B   5339       0.25      1.008
 21050         HL    502   POPC   H14C   5339       0.25      1.008
 21051       CTL5    502   POPC    C15   5339      -0.35     12.011
 21052         HL    502   POPC   H15A   5339       0.25      1.008
 21053         HL    502   POPC   H15B   5339       0.25      1.008
 21054         HL    502   POPC   H15C   5339       0.25      1.008
 21055       CTL2    502   POPC    C11   5340      -0.08     12.011
 21056       HAL2    502   POPC   H11A   5340       0.09      1.008
 21057       HAL2    502   POPC   H11B   5340       0.09      1.008
 21058         PL    502   POPC      P   5340        1.5     30.974
 21059        O2L    502   POPC    O13   5340      -0.78    15.9994
 21060        O2L    502   POPC    O14   5340      -0.78    15.9994
 21061       OSLP    502   POPC    O12   5340      -0.57    15.9994
 21062       OSLP    502   POPC    O11   5340      -0.57    15.9994
 21063       CTL2    502   POPC     C1   5340      -0.08     12.011
 21064       HAL2    502   POPC     HA   5340       0.09      1.008
 21065       HAL2    502   POPC     HB   5340       0.09      1.008
 21066       CTL1    502   POPC     C2   5341       0.17     12.011
 21067       HAL1    502   POPC     HS   5341       0.09      1.008
 21068        OSL    502   POPC    O21   5341      -0.49    15.9994
 21069         CL    502   POPC    C21   5341        0.9     12.011
 21070        OBL    502   POPC    O22   5341      -0.63    15.9994
 21071       CTL2    502   POPC    C22   5341      -0.22     12.011
 21072       HAL2    502   POPC    H2R   5341       0.09      1.008
 21073       HAL2    502   POPC    H2S   5341       0.09      1.008
 21074       CTL2    502   POPC     C3   5342       0.08     12.011
 21075       HAL2    502   POPC     HX   5342       0.09      1.008
 21076       HAL2    502   POPC     HY   5342       0.09      1.008
 21077        OSL    502   POPC    O31   5342      -0.49    15.9994
 21078         CL    502   POPC    C31   5342        0.9     12.011
 21079        OBL    502   POPC    O32   5342      -0.63    15.9994
 21080       CTL2    502   POPC    C32   5342      -0.22     12.011
 21081       HAL2    502   POPC    H2X   5342       0.09      1.008
 21082       HAL2    502   POPC    H2Y   5342       0.09      1.008
 21083       CTL2    502   POPC    C23   5343      -0.18     12.011
 21084       HAL2    502   POPC    H3R   5343       0.09      1.008
 21085       HAL2    502   POPC    H3S   5343       0.09      1.008
 21086       CTL2    502   POPC    C24   5344      -0.18     12.011
 21087       HAL2    502   POPC    H4R   5344       0.09      1.008
 21088       HAL2    502   POPC    H4S   5344       0.09      1.008
 21089       CTL2    502   POPC    C25   5345      -0.18     12.011
 21090       HAL2    502   POPC    H5R   5345       0.09      1.008
 21091       HAL2    502   POPC    H5S   5345       0.09      1.008
 21092       CTL2    502   POPC    C26   5346      -0.18     12.011
 21093       HAL2    502   POPC    H6R   5346       0.09      1.008
 21094       HAL2    502   POPC    H6S   5346       0.09      1.008
 21095       CTL2    502   POPC    C27   5347      -0.18     12.011
 21096       HAL2    502   POPC    H7R   5347       0.09      1.008
 21097       HAL2    502   POPC    H7S   5347       0.09      1.008
 21098       CTL2    502   POPC    C28   5348      -0.18     12.011
 21099       HAL2    502   POPC    H8R   5348       0.09      1.008
 21100       HAL2    502   POPC    H8S   5348       0.09      1.008
 21101       CEL1    502   POPC    C29   5349      -0.15     12.011
 21102       HEL1    502   POPC    H91   5349       0.15      1.008
 21103       CEL1    502   POPC   C210   5350      -0.15     12.011
 21104       HEL1    502   POPC   H101   5350       0.15      1.008
 21105       CTL2    502   POPC   C211   5351      -0.18     12.011
 21106       HAL2    502   POPC   H11R   5351       0.09      1.008
 21107       HAL2    502   POPC   H11S   5351       0.09      1.008
 21108       CTL2    502   POPC   C212   5352      -0.18     12.011
 21109       HAL2    502   POPC   H12R   5352       0.09      1.008
 21110       HAL2    502   POPC   H12S   5352       0.09      1.008
 21111       CTL2    502   POPC   C213   5353      -0.18     12.011
 21112       HAL2    502   POPC   H13R   5353       0.09      1.008
 21113       HAL2    502   POPC   H13S   5353       0.09      1.008
 21114       CTL2    502   POPC   C214   5354      -0.18     12.011
 21115       HAL2    502   POPC   H14R   5354       0.09      1.008
 21116       HAL2    502   POPC   H14S   5354       0.09      1.008
 21117       CTL2    502   POPC   C215   5355      -0.18     12.011
 21118       HAL2    502   POPC   H15R   5355       0.09      1.008
 21119       HAL2    502   POPC   H15S   5355       0.09      1.008
 21120       CTL2    502   POPC   C216   5356      -0.18     12.011
 21121       HAL2    502   POPC   H16R   5356       0.09      1.008
 21122       HAL2    502   POPC   H16S   5356       0.09      1.008
 21123       CTL2    502   POPC   C217   5357      -0.18     12.011
 21124       HAL2    502   POPC   H17R   5357       0.09      1.008
 21125       HAL2    502   POPC   H17S   5357       0.09      1.008
 21126       CTL3    502   POPC   C218   5358      -0.27     12.011
 21127       HAL3    502   POPC   H18R   5358       0.09      1.008
 21128       HAL3    502   POPC   H18S   5358       0.09      1.008
 21129       HAL3    502   POPC   H18T   5358       0.09      1.008
 21130       CTL2    502   POPC    C33   5359      -0.18     12.011
 21131       HAL2    502   POPC    H3X   5359       0.09      1.008
 21132       HAL2    502   POPC    H3Y   5359       0.09      1.008
 21133       CTL2    502   POPC    C34   5360      -0.18     12.011
 21134       HAL2    502   POPC    H4X   5360       0.09      1.008
 21135       HAL2    502   POPC    H4Y   5360       0.09      1.008
 21136       CTL2    502   POPC    C35   5361      -0.18     12.011
 21137       HAL2    502   POPC    H5X   5361       0.09      1.008
 21138       HAL2    502   POPC    H5Y   5361       0.09      1.008
 21139       CTL2    502   POPC    C36   5362      -0.18     12.011
 21140       HAL2    502   POPC    H6X   5362       0.09      1.008
 21141       HAL2    502   POPC    H6Y   5362       0.09      1.008
 21142       CTL2    502   POPC    C37   5363      -0.18     12.011
 21143       HAL2    502   POPC    H7X   5363       0.09      1.008
 21144       HAL2    502   POPC    H7Y   5363       0.09      1.008
 21145       CTL2    502   POPC    C38   5364      -0.18     12.011
 21146       HAL2    502   POPC    H8X   5364       0.09      1.008
 21147       HAL2    502   POPC    H8Y   5364       0.09      1.008
 21148       CTL2    502   POPC    C39   5365      -0.18     12.011
 21149       HAL2    502   POPC    H9X   5365       0.09      1.008
 21150       HAL2    502   POPC    H9Y   5365       0.09      1.008
 21151       CTL2    502   POPC   C310   5366      -0.18     12.011
 21152       HAL2    502   POPC   H10X   5366       0.09      1.008
 21153       HAL2    502   POPC   H10Y   5366       0.09      1.008
 21154       CTL2    502   POPC   C311   5367      -0.18     12.011
 21155       HAL2    502   POPC   H11X   5367       0.09      1.008
 21156       HAL2    502   POPC   H11Y   5367       0.09      1.008
 21157       CTL2    502   POPC   C312   5368      -0.18     12.011
 21158       HAL2    502   POPC   H12X   5368       0.09      1.008
 21159       HAL2    502   POPC   H12Y   5368       0.09      1.008
 21160       CTL2    502   POPC   C313   5369      -0.18     12.011
 21161       HAL2    502   POPC   H13X   5369       0.09      1.008
 21162       HAL2    502   POPC   H13Y   5369       0.09      1.008
 21163       CTL2    502   POPC   C314   5370      -0.18     12.011
 21164       HAL2    502   POPC   H14X   5370       0.09      1.008
 21165       HAL2    502   POPC   H14Y   5370       0.09      1.008
 21166       CTL2    502   POPC   C315   5371      -0.18     12.011
 21167       HAL2    502   POPC   H15X   5371       0.09      1.008
 21168       HAL2    502   POPC   H15Y   5371       0.09      1.008
 21169       CTL3    502   POPC   C316   5372      -0.27     12.011
 21170       HAL3    502   POPC   H16X   5372       0.09      1.008
 21171       HAL3    502   POPC   H16Y   5372       0.09      1.008
 21172       HAL3    502   POPC   H16Z   5372       0.09      1.008   ; qtot 0
; residue 503 POPC rtp POPC q  0.0
 21173        NTL    503   POPC      N   5373       -0.6     14.007
 21174       CTL2    503   POPC    C12   5373       -0.1     12.011
 21175         HL    503   POPC   H12A   5373       0.25      1.008
 21176         HL    503   POPC   H12B   5373       0.25      1.008
 21177       CTL5    503   POPC    C13   5373      -0.35     12.011
 21178         HL    503   POPC   H13A   5373       0.25      1.008
 21179         HL    503   POPC   H13B   5373       0.25      1.008
 21180         HL    503   POPC   H13C   5373       0.25      1.008
 21181       CTL5    503   POPC    C14   5373      -0.35     12.011
 21182         HL    503   POPC   H14A   5373       0.25      1.008
 21183         HL    503   POPC   H14B   5373       0.25      1.008
 21184         HL    503   POPC   H14C   5373       0.25      1.008
 21185       CTL5    503   POPC    C15   5373      -0.35     12.011
 21186         HL    503   POPC   H15A   5373       0.25      1.008
 21187         HL    503   POPC   H15B   5373       0.25      1.008
 21188         HL    503   POPC   H15C   5373       0.25      1.008
 21189       CTL2    503   POPC    C11   5374      -0.08     12.011
 21190       HAL2    503   POPC   H11A   5374       0.09      1.008
 21191       HAL2    503   POPC   H11B   5374       0.09      1.008
 21192         PL    503   POPC      P   5374        1.5     30.974
 21193        O2L    503   POPC    O13   5374      -0.78    15.9994
 21194        O2L    503   POPC    O14   5374      -0.78    15.9994
 21195       OSLP    503   POPC    O12   5374      -0.57    15.9994
 21196       OSLP    503   POPC    O11   5374      -0.57    15.9994
 21197       CTL2    503   POPC     C1   5374      -0.08     12.011
 21198       HAL2    503   POPC     HA   5374       0.09      1.008
 21199       HAL2    503   POPC     HB   5374       0.09      1.008
 21200       CTL1    503   POPC     C2   5375       0.17     12.011
 21201       HAL1    503   POPC     HS   5375       0.09      1.008
 21202        OSL    503   POPC    O21   5375      -0.49    15.9994
 21203         CL    503   POPC    C21   5375        0.9     12.011
 21204        OBL    503   POPC    O22   5375      -0.63    15.9994
 21205       CTL2    503   POPC    C22   5375      -0.22     12.011
 21206       HAL2    503   POPC    H2R   5375       0.09      1.008
 21207       HAL2    503   POPC    H2S   5375       0.09      1.008
 21208       CTL2    503   POPC     C3   5376       0.08     12.011
 21209       HAL2    503   POPC     HX   5376       0.09      1.008
 21210       HAL2    503   POPC     HY   5376       0.09      1.008
 21211        OSL    503   POPC    O31   5376      -0.49    15.9994
 21212         CL    503   POPC    C31   5376        0.9     12.011
 21213        OBL    503   POPC    O32   5376      -0.63    15.9994
 21214       CTL2    503   POPC    C32   5376      -0.22     12.011
 21215       HAL2    503   POPC    H2X   5376       0.09      1.008
 21216       HAL2    503   POPC    H2Y   5376       0.09      1.008
 21217       CTL2    503   POPC    C23   5377      -0.18     12.011
 21218       HAL2    503   POPC    H3R   5377       0.09      1.008
 21219       HAL2    503   POPC    H3S   5377       0.09      1.008
 21220       CTL2    503   POPC    C24   5378      -0.18     12.011
 21221       HAL2    503   POPC    H4R   5378       0.09      1.008
 21222       HAL2    503   POPC    H4S   5378       0.09      1.008
 21223       CTL2    503   POPC    C25   5379      -0.18     12.011
 21224       HAL2    503   POPC    H5R   5379       0.09      1.008
 21225       HAL2    503   POPC    H5S   5379       0.09      1.008
 21226       CTL2    503   POPC    C26   5380      -0.18     12.011
 21227       HAL2    503   POPC    H6R   5380       0.09      1.008
 21228       HAL2    503   POPC    H6S   5380       0.09      1.008
 21229       CTL2    503   POPC    C27   5381      -0.18     12.011
 21230       HAL2    503   POPC    H7R   5381       0.09      1.008
 21231       HAL2    503   POPC    H7S   5381       0.09      1.008
 21232       CTL2    503   POPC    C28   5382      -0.18     12.011
 21233       HAL2    503   POPC    H8R   5382       0.09      1.008
 21234       HAL2    503   POPC    H8S   5382       0.09      1.008
 21235       CEL1    503   POPC    C29   5383      -0.15     12.011
 21236       HEL1    503   POPC    H91   5383       0.15      1.008
 21237       CEL1    503   POPC   C210   5384      -0.15     12.011
 21238       HEL1    503   POPC   H101   5384       0.15      1.008
 21239       CTL2    503   POPC   C211   5385      -0.18     12.011
 21240       HAL2    503   POPC   H11R   5385       0.09      1.008
 21241       HAL2    503   POPC   H11S   5385       0.09      1.008
 21242       CTL2    503   POPC   C212   5386      -0.18     12.011
 21243       HAL2    503   POPC   H12R   5386       0.09      1.008
 21244       HAL2    503   POPC   H12S   5386       0.09      1.008
 21245       CTL2    503   POPC   C213   5387      -0.18     12.011
 21246       HAL2    503   POPC   H13R   5387       0.09      1.008
 21247       HAL2    503   POPC   H13S   5387       0.09      1.008
 21248       CTL2    503   POPC   C214   5388      -0.18     12.011
 21249       HAL2    503   POPC   H14R   5388       0.09      1.008
 21250       HAL2    503   POPC   H14S   5388       0.09      1.008
 21251       CTL2    503   POPC   C215   5389      -0.18     12.011
 21252       HAL2    503   POPC   H15R   5389       0.09      1.008
 21253       HAL2    503   POPC   H15S   5389       0.09      1.008
 21254       CTL2    503   POPC   C216   5390      -0.18     12.011
 21255       HAL2    503   POPC   H16R   5390       0.09      1.008
 21256       HAL2    503   POPC   H16S   5390       0.09      1.008
 21257       CTL2    503   POPC   C217   5391      -0.18     12.011
 21258       HAL2    503   POPC   H17R   5391       0.09      1.008
 21259       HAL2    503   POPC   H17S   5391       0.09      1.008
 21260       CTL3    503   POPC   C218   5392      -0.27     12.011
 21261       HAL3    503   POPC   H18R   5392       0.09      1.008
 21262       HAL3    503   POPC   H18S   5392       0.09      1.008
 21263       HAL3    503   POPC   H18T   5392       0.09      1.008
 21264       CTL2    503   POPC    C33   5393      -0.18     12.011
 21265       HAL2    503   POPC    H3X   5393       0.09      1.008
 21266       HAL2    503   POPC    H3Y   5393       0.09      1.008
 21267       CTL2    503   POPC    C34   5394      -0.18     12.011
 21268       HAL2    503   POPC    H4X   5394       0.09      1.008
 21269       HAL2    503   POPC    H4Y   5394       0.09      1.008
 21270       CTL2    503   POPC    C35   5395      -0.18     12.011
 21271       HAL2    503   POPC    H5X   5395       0.09      1.008
 21272       HAL2    503   POPC    H5Y   5395       0.09      1.008
 21273       CTL2    503   POPC    C36   5396      -0.18     12.011
 21274       HAL2    503   POPC    H6X   5396       0.09      1.008
 21275       HAL2    503   POPC    H6Y   5396       0.09      1.008
 21276       CTL2    503   POPC    C37   5397      -0.18     12.011
 21277       HAL2    503   POPC    H7X   5397       0.09      1.008
 21278       HAL2    503   POPC    H7Y   5397       0.09      1.008
 21279       CTL2    503   POPC    C38   5398      -0.18     12.011
 21280       HAL2    503   POPC    H8X   5398       0.09      1.008
 21281       HAL2    503   POPC    H8Y   5398       0.09      1.008
 21282       CTL2    503   POPC    C39   5399      -0.18     12.011
 21283       HAL2    503   POPC    H9X   5399       0.09      1.008
 21284       HAL2    503   POPC    H9Y   5399       0.09      1.008
 21285       CTL2    503   POPC   C310   5400      -0.18     12.011
 21286       HAL2    503   POPC   H10X   5400       0.09      1.008
 21287       HAL2    503   POPC   H10Y   5400       0.09      1.008
 21288       CTL2    503   POPC   C311   5401      -0.18     12.011
 21289       HAL2    503   POPC   H11X   5401       0.09      1.008
 21290       HAL2    503   POPC   H11Y   5401       0.09      1.008
 21291       CTL2    503   POPC   C312   5402      -0.18     12.011
 21292       HAL2    503   POPC   H12X   5402       0.09      1.008
 21293       HAL2    503   POPC   H12Y   5402       0.09      1.008
 21294       CTL2    503   POPC   C313   5403      -0.18     12.011
 21295       HAL2    503   POPC   H13X   5403       0.09      1.008
 21296       HAL2    503   POPC   H13Y   5403       0.09      1.008
 21297       CTL2    503   POPC   C314   5404      -0.18     12.011
 21298       HAL2    503   POPC   H14X   5404       0.09      1.008
 21299       HAL2    503   POPC   H14Y   5404       0.09      1.008
 21300       CTL2    503   POPC   C315   5405      -0.18     12.011
 21301       HAL2    503   POPC   H15X   5405       0.09      1.008
 21302       HAL2    503   POPC   H15Y   5405       0.09      1.008
 21303       CTL3    503   POPC   C316   5406      -0.27     12.011
 21304       HAL3    503   POPC   H16X   5406       0.09      1.008
 21305       HAL3    503   POPC   H16Y   5406       0.09      1.008
 21306       HAL3    503   POPC   H16Z   5406       0.09      1.008   ; qtot 0
; residue 504 POPC rtp POPC q  0.0
 21307        NTL    504   POPC      N   5407       -0.6     14.007
 21308       CTL2    504   POPC    C12   5407       -0.1     12.011
 21309         HL    504   POPC   H12A   5407       0.25      1.008
 21310         HL    504   POPC   H12B   5407       0.25      1.008
 21311       CTL5    504   POPC    C13   5407      -0.35     12.011
 21312         HL    504   POPC   H13A   5407       0.25      1.008
 21313         HL    504   POPC   H13B   5407       0.25      1.008
 21314         HL    504   POPC   H13C   5407       0.25      1.008
 21315       CTL5    504   POPC    C14   5407      -0.35     12.011
 21316         HL    504   POPC   H14A   5407       0.25      1.008
 21317         HL    504   POPC   H14B   5407       0.25      1.008
 21318         HL    504   POPC   H14C   5407       0.25      1.008
 21319       CTL5    504   POPC    C15   5407      -0.35     12.011
 21320         HL    504   POPC   H15A   5407       0.25      1.008
 21321         HL    504   POPC   H15B   5407       0.25      1.008
 21322         HL    504   POPC   H15C   5407       0.25      1.008
 21323       CTL2    504   POPC    C11   5408      -0.08     12.011
 21324       HAL2    504   POPC   H11A   5408       0.09      1.008
 21325       HAL2    504   POPC   H11B   5408       0.09      1.008
 21326         PL    504   POPC      P   5408        1.5     30.974
 21327        O2L    504   POPC    O13   5408      -0.78    15.9994
 21328        O2L    504   POPC    O14   5408      -0.78    15.9994
 21329       OSLP    504   POPC    O12   5408      -0.57    15.9994
 21330       OSLP    504   POPC    O11   5408      -0.57    15.9994
 21331       CTL2    504   POPC     C1   5408      -0.08     12.011
 21332       HAL2    504   POPC     HA   5408       0.09      1.008
 21333       HAL2    504   POPC     HB   5408       0.09      1.008
 21334       CTL1    504   POPC     C2   5409       0.17     12.011
 21335       HAL1    504   POPC     HS   5409       0.09      1.008
 21336        OSL    504   POPC    O21   5409      -0.49    15.9994
 21337         CL    504   POPC    C21   5409        0.9     12.011
 21338        OBL    504   POPC    O22   5409      -0.63    15.9994
 21339       CTL2    504   POPC    C22   5409      -0.22     12.011
 21340       HAL2    504   POPC    H2R   5409       0.09      1.008
 21341       HAL2    504   POPC    H2S   5409       0.09      1.008
 21342       CTL2    504   POPC     C3   5410       0.08     12.011
 21343       HAL2    504   POPC     HX   5410       0.09      1.008
 21344       HAL2    504   POPC     HY   5410       0.09      1.008
 21345        OSL    504   POPC    O31   5410      -0.49    15.9994
 21346         CL    504   POPC    C31   5410        0.9     12.011
 21347        OBL    504   POPC    O32   5410      -0.63    15.9994
 21348       CTL2    504   POPC    C32   5410      -0.22     12.011
 21349       HAL2    504   POPC    H2X   5410       0.09      1.008
 21350       HAL2    504   POPC    H2Y   5410       0.09      1.008
 21351       CTL2    504   POPC    C23   5411      -0.18     12.011
 21352       HAL2    504   POPC    H3R   5411       0.09      1.008
 21353       HAL2    504   POPC    H3S   5411       0.09      1.008
 21354       CTL2    504   POPC    C24   5412      -0.18     12.011
 21355       HAL2    504   POPC    H4R   5412       0.09      1.008
 21356       HAL2    504   POPC    H4S   5412       0.09      1.008
 21357       CTL2    504   POPC    C25   5413      -0.18     12.011
 21358       HAL2    504   POPC    H5R   5413       0.09      1.008
 21359       HAL2    504   POPC    H5S   5413       0.09      1.008
 21360       CTL2    504   POPC    C26   5414      -0.18     12.011
 21361       HAL2    504   POPC    H6R   5414       0.09      1.008
 21362       HAL2    504   POPC    H6S   5414       0.09      1.008
 21363       CTL2    504   POPC    C27   5415      -0.18     12.011
 21364       HAL2    504   POPC    H7R   5415       0.09      1.008
 21365       HAL2    504   POPC    H7S   5415       0.09      1.008
 21366       CTL2    504   POPC    C28   5416      -0.18     12.011
 21367       HAL2    504   POPC    H8R   5416       0.09      1.008
 21368       HAL2    504   POPC    H8S   5416       0.09      1.008
 21369       CEL1    504   POPC    C29   5417      -0.15     12.011
 21370       HEL1    504   POPC    H91   5417       0.15      1.008
 21371       CEL1    504   POPC   C210   5418      -0.15     12.011
 21372       HEL1    504   POPC   H101   5418       0.15      1.008
 21373       CTL2    504   POPC   C211   5419      -0.18     12.011
 21374       HAL2    504   POPC   H11R   5419       0.09      1.008
 21375       HAL2    504   POPC   H11S   5419       0.09      1.008
 21376       CTL2    504   POPC   C212   5420      -0.18     12.011
 21377       HAL2    504   POPC   H12R   5420       0.09      1.008
 21378       HAL2    504   POPC   H12S   5420       0.09      1.008
 21379       CTL2    504   POPC   C213   5421      -0.18     12.011
 21380       HAL2    504   POPC   H13R   5421       0.09      1.008
 21381       HAL2    504   POPC   H13S   5421       0.09      1.008
 21382       CTL2    504   POPC   C214   5422      -0.18     12.011
 21383       HAL2    504   POPC   H14R   5422       0.09      1.008
 21384       HAL2    504   POPC   H14S   5422       0.09      1.008
 21385       CTL2    504   POPC   C215   5423      -0.18     12.011
 21386       HAL2    504   POPC   H15R   5423       0.09      1.008
 21387       HAL2    504   POPC   H15S   5423       0.09      1.008
 21388       CTL2    504   POPC   C216   5424      -0.18     12.011
 21389       HAL2    504   POPC   H16R   5424       0.09      1.008
 21390       HAL2    504   POPC   H16S   5424       0.09      1.008
 21391       CTL2    504   POPC   C217   5425      -0.18     12.011
 21392       HAL2    504   POPC   H17R   5425       0.09      1.008
 21393       HAL2    504   POPC   H17S   5425       0.09      1.008
 21394       CTL3    504   POPC   C218   5426      -0.27     12.011
 21395       HAL3    504   POPC   H18R   5426       0.09      1.008
 21396       HAL3    504   POPC   H18S   5426       0.09      1.008
 21397       HAL3    504   POPC   H18T   5426       0.09      1.008
 21398       CTL2    504   POPC    C33   5427      -0.18     12.011
 21399       HAL2    504   POPC    H3X   5427       0.09      1.008
 21400       HAL2    504   POPC    H3Y   5427       0.09      1.008
 21401       CTL2    504   POPC    C34   5428      -0.18     12.011
 21402       HAL2    504   POPC    H4X   5428       0.09      1.008
 21403       HAL2    504   POPC    H4Y   5428       0.09      1.008
 21404       CTL2    504   POPC    C35   5429      -0.18     12.011
 21405       HAL2    504   POPC    H5X   5429       0.09      1.008
 21406       HAL2    504   POPC    H5Y   5429       0.09      1.008
 21407       CTL2    504   POPC    C36   5430      -0.18     12.011
 21408       HAL2    504   POPC    H6X   5430       0.09      1.008
 21409       HAL2    504   POPC    H6Y   5430       0.09      1.008
 21410       CTL2    504   POPC    C37   5431      -0.18     12.011
 21411       HAL2    504   POPC    H7X   5431       0.09      1.008
 21412       HAL2    504   POPC    H7Y   5431       0.09      1.008
 21413       CTL2    504   POPC    C38   5432      -0.18     12.011
 21414       HAL2    504   POPC    H8X   5432       0.09      1.008
 21415       HAL2    504   POPC    H8Y   5432       0.09      1.008
 21416       CTL2    504   POPC    C39   5433      -0.18     12.011
 21417       HAL2    504   POPC    H9X   5433       0.09      1.008
 21418       HAL2    504   POPC    H9Y   5433       0.09      1.008
 21419       CTL2    504   POPC   C310   5434      -0.18     12.011
 21420       HAL2    504   POPC   H10X   5434       0.09      1.008
 21421       HAL2    504   POPC   H10Y   5434       0.09      1.008
 21422       CTL2    504   POPC   C311   5435      -0.18     12.011
 21423       HAL2    504   POPC   H11X   5435       0.09      1.008
 21424       HAL2    504   POPC   H11Y   5435       0.09      1.008
 21425       CTL2    504   POPC   C312   5436      -0.18     12.011
 21426       HAL2    504   POPC   H12X   5436       0.09      1.008
 21427       HAL2    504   POPC   H12Y   5436       0.09      1.008
 21428       CTL2    504   POPC   C313   5437      -0.18     12.011
 21429       HAL2    504   POPC   H13X   5437       0.09      1.008
 21430       HAL2    504   POPC   H13Y   5437       0.09      1.008
 21431       CTL2    504   POPC   C314   5438      -0.18     12.011
 21432       HAL2    504   POPC   H14X   5438       0.09      1.008
 21433       HAL2    504   POPC   H14Y   5438       0.09      1.008
 21434       CTL2    504   POPC   C315   5439      -0.18     12.011
 21435       HAL2    504   POPC   H15X   5439       0.09      1.008
 21436       HAL2    504   POPC   H15Y   5439       0.09      1.008
 21437       CTL3    504   POPC   C316   5440      -0.27     12.011
 21438       HAL3    504   POPC   H16X   5440       0.09      1.008
 21439       HAL3    504   POPC   H16Y   5440       0.09      1.008
 21440       HAL3    504   POPC   H16Z   5440       0.09      1.008   ; qtot 0
; residue 505 POPC rtp POPC q  0.0
 21441        NTL    505   POPC      N   5441       -0.6     14.007
 21442       CTL2    505   POPC    C12   5441       -0.1     12.011
 21443         HL    505   POPC   H12A   5441       0.25      1.008
 21444         HL    505   POPC   H12B   5441       0.25      1.008
 21445       CTL5    505   POPC    C13   5441      -0.35     12.011
 21446         HL    505   POPC   H13A   5441       0.25      1.008
 21447         HL    505   POPC   H13B   5441       0.25      1.008
 21448         HL    505   POPC   H13C   5441       0.25      1.008
 21449       CTL5    505   POPC    C14   5441      -0.35     12.011
 21450         HL    505   POPC   H14A   5441       0.25      1.008
 21451         HL    505   POPC   H14B   5441       0.25      1.008
 21452         HL    505   POPC   H14C   5441       0.25      1.008
 21453       CTL5    505   POPC    C15   5441      -0.35     12.011
 21454         HL    505   POPC   H15A   5441       0.25      1.008
 21455         HL    505   POPC   H15B   5441       0.25      1.008
 21456         HL    505   POPC   H15C   5441       0.25      1.008
 21457       CTL2    505   POPC    C11   5442      -0.08     12.011
 21458       HAL2    505   POPC   H11A   5442       0.09      1.008
 21459       HAL2    505   POPC   H11B   5442       0.09      1.008
 21460         PL    505   POPC      P   5442        1.5     30.974
 21461        O2L    505   POPC    O13   5442      -0.78    15.9994
 21462        O2L    505   POPC    O14   5442      -0.78    15.9994
 21463       OSLP    505   POPC    O12   5442      -0.57    15.9994
 21464       OSLP    505   POPC    O11   5442      -0.57    15.9994
 21465       CTL2    505   POPC     C1   5442      -0.08     12.011
 21466       HAL2    505   POPC     HA   5442       0.09      1.008
 21467       HAL2    505   POPC     HB   5442       0.09      1.008
 21468       CTL1    505   POPC     C2   5443       0.17     12.011
 21469       HAL1    505   POPC     HS   5443       0.09      1.008
 21470        OSL    505   POPC    O21   5443      -0.49    15.9994
 21471         CL    505   POPC    C21   5443        0.9     12.011
 21472        OBL    505   POPC    O22   5443      -0.63    15.9994
 21473       CTL2    505   POPC    C22   5443      -0.22     12.011
 21474       HAL2    505   POPC    H2R   5443       0.09      1.008
 21475       HAL2    505   POPC    H2S   5443       0.09      1.008
 21476       CTL2    505   POPC     C3   5444       0.08     12.011
 21477       HAL2    505   POPC     HX   5444       0.09      1.008
 21478       HAL2    505   POPC     HY   5444       0.09      1.008
 21479        OSL    505   POPC    O31   5444      -0.49    15.9994
 21480         CL    505   POPC    C31   5444        0.9     12.011
 21481        OBL    505   POPC    O32   5444      -0.63    15.9994
 21482       CTL2    505   POPC    C32   5444      -0.22     12.011
 21483       HAL2    505   POPC    H2X   5444       0.09      1.008
 21484       HAL2    505   POPC    H2Y   5444       0.09      1.008
 21485       CTL2    505   POPC    C23   5445      -0.18     12.011
 21486       HAL2    505   POPC    H3R   5445       0.09      1.008
 21487       HAL2    505   POPC    H3S   5445       0.09      1.008
 21488       CTL2    505   POPC    C24   5446      -0.18     12.011
 21489       HAL2    505   POPC    H4R   5446       0.09      1.008
 21490       HAL2    505   POPC    H4S   5446       0.09      1.008
 21491       CTL2    505   POPC    C25   5447      -0.18     12.011
 21492       HAL2    505   POPC    H5R   5447       0.09      1.008
 21493       HAL2    505   POPC    H5S   5447       0.09      1.008
 21494       CTL2    505   POPC    C26   5448      -0.18     12.011
 21495       HAL2    505   POPC    H6R   5448       0.09      1.008
 21496       HAL2    505   POPC    H6S   5448       0.09      1.008
 21497       CTL2    505   POPC    C27   5449      -0.18     12.011
 21498       HAL2    505   POPC    H7R   5449       0.09      1.008
 21499       HAL2    505   POPC    H7S   5449       0.09      1.008
 21500       CTL2    505   POPC    C28   5450      -0.18     12.011
 21501       HAL2    505   POPC    H8R   5450       0.09      1.008
 21502       HAL2    505   POPC    H8S   5450       0.09      1.008
 21503       CEL1    505   POPC    C29   5451      -0.15     12.011
 21504       HEL1    505   POPC    H91   5451       0.15      1.008
 21505       CEL1    505   POPC   C210   5452      -0.15     12.011
 21506       HEL1    505   POPC   H101   5452       0.15      1.008
 21507       CTL2    505   POPC   C211   5453      -0.18     12.011
 21508       HAL2    505   POPC   H11R   5453       0.09      1.008
 21509       HAL2    505   POPC   H11S   5453       0.09      1.008
 21510       CTL2    505   POPC   C212   5454      -0.18     12.011
 21511       HAL2    505   POPC   H12R   5454       0.09      1.008
 21512       HAL2    505   POPC   H12S   5454       0.09      1.008
 21513       CTL2    505   POPC   C213   5455      -0.18     12.011
 21514       HAL2    505   POPC   H13R   5455       0.09      1.008
 21515       HAL2    505   POPC   H13S   5455       0.09      1.008
 21516       CTL2    505   POPC   C214   5456      -0.18     12.011
 21517       HAL2    505   POPC   H14R   5456       0.09      1.008
 21518       HAL2    505   POPC   H14S   5456       0.09      1.008
 21519       CTL2    505   POPC   C215   5457      -0.18     12.011
 21520       HAL2    505   POPC   H15R   5457       0.09      1.008
 21521       HAL2    505   POPC   H15S   5457       0.09      1.008
 21522       CTL2    505   POPC   C216   5458      -0.18     12.011
 21523       HAL2    505   POPC   H16R   5458       0.09      1.008
 21524       HAL2    505   POPC   H16S   5458       0.09      1.008
 21525       CTL2    505   POPC   C217   5459      -0.18     12.011
 21526       HAL2    505   POPC   H17R   5459       0.09      1.008
 21527       HAL2    505   POPC   H17S   5459       0.09      1.008
 21528       CTL3    505   POPC   C218   5460      -0.27     12.011
 21529       HAL3    505   POPC   H18R   5460       0.09      1.008
 21530       HAL3    505   POPC   H18S   5460       0.09      1.008
 21531       HAL3    505   POPC   H18T   5460       0.09      1.008
 21532       CTL2    505   POPC    C33   5461      -0.18     12.011
 21533       HAL2    505   POPC    H3X   5461       0.09      1.008
 21534       HAL2    505   POPC    H3Y   5461       0.09      1.008
 21535       CTL2    505   POPC    C34   5462      -0.18     12.011
 21536       HAL2    505   POPC    H4X   5462       0.09      1.008
 21537       HAL2    505   POPC    H4Y   5462       0.09      1.008
 21538       CTL2    505   POPC    C35   5463      -0.18     12.011
 21539       HAL2    505   POPC    H5X   5463       0.09      1.008
 21540       HAL2    505   POPC    H5Y   5463       0.09      1.008
 21541       CTL2    505   POPC    C36   5464      -0.18     12.011
 21542       HAL2    505   POPC    H6X   5464       0.09      1.008
 21543       HAL2    505   POPC    H6Y   5464       0.09      1.008
 21544       CTL2    505   POPC    C37   5465      -0.18     12.011
 21545       HAL2    505   POPC    H7X   5465       0.09      1.008
 21546       HAL2    505   POPC    H7Y   5465       0.09      1.008
 21547       CTL2    505   POPC    C38   5466      -0.18     12.011
 21548       HAL2    505   POPC    H8X   5466       0.09      1.008
 21549       HAL2    505   POPC    H8Y   5466       0.09      1.008
 21550       CTL2    505   POPC    C39   5467      -0.18     12.011
 21551       HAL2    505   POPC    H9X   5467       0.09      1.008
 21552       HAL2    505   POPC    H9Y   5467       0.09      1.008
 21553       CTL2    505   POPC   C310   5468      -0.18     12.011
 21554       HAL2    505   POPC   H10X   5468       0.09      1.008
 21555       HAL2    505   POPC   H10Y   5468       0.09      1.008
 21556       CTL2    505   POPC   C311   5469      -0.18     12.011
 21557       HAL2    505   POPC   H11X   5469       0.09      1.008
 21558       HAL2    505   POPC   H11Y   5469       0.09      1.008
 21559       CTL2    505   POPC   C312   5470      -0.18     12.011
 21560       HAL2    505   POPC   H12X   5470       0.09      1.008
 21561       HAL2    505   POPC   H12Y   5470       0.09      1.008
 21562       CTL2    505   POPC   C313   5471      -0.18     12.011
 21563       HAL2    505   POPC   H13X   5471       0.09      1.008
 21564       HAL2    505   POPC   H13Y   5471       0.09      1.008
 21565       CTL2    505   POPC   C314   5472      -0.18     12.011
 21566       HAL2    505   POPC   H14X   5472       0.09      1.008
 21567       HAL2    505   POPC   H14Y   5472       0.09      1.008
 21568       CTL2    505   POPC   C315   5473      -0.18     12.011
 21569       HAL2    505   POPC   H15X   5473       0.09      1.008
 21570       HAL2    505   POPC   H15Y   5473       0.09      1.008
 21571       CTL3    505   POPC   C316   5474      -0.27     12.011
 21572       HAL3    505   POPC   H16X   5474       0.09      1.008
 21573       HAL3    505   POPC   H16Y   5474       0.09      1.008
 21574       HAL3    505   POPC   H16Z   5474       0.09      1.008   ; qtot 0
; residue 506 POPC rtp POPC q  0.0
 21575        NTL    506   POPC      N   5475       -0.6     14.007
 21576       CTL2    506   POPC    C12   5475       -0.1     12.011
 21577         HL    506   POPC   H12A   5475       0.25      1.008
 21578         HL    506   POPC   H12B   5475       0.25      1.008
 21579       CTL5    506   POPC    C13   5475      -0.35     12.011
 21580         HL    506   POPC   H13A   5475       0.25      1.008
 21581         HL    506   POPC   H13B   5475       0.25      1.008
 21582         HL    506   POPC   H13C   5475       0.25      1.008
 21583       CTL5    506   POPC    C14   5475      -0.35     12.011
 21584         HL    506   POPC   H14A   5475       0.25      1.008
 21585         HL    506   POPC   H14B   5475       0.25      1.008
 21586         HL    506   POPC   H14C   5475       0.25      1.008
 21587       CTL5    506   POPC    C15   5475      -0.35     12.011
 21588         HL    506   POPC   H15A   5475       0.25      1.008
 21589         HL    506   POPC   H15B   5475       0.25      1.008
 21590         HL    506   POPC   H15C   5475       0.25      1.008
 21591       CTL2    506   POPC    C11   5476      -0.08     12.011
 21592       HAL2    506   POPC   H11A   5476       0.09      1.008
 21593       HAL2    506   POPC   H11B   5476       0.09      1.008
 21594         PL    506   POPC      P   5476        1.5     30.974
 21595        O2L    506   POPC    O13   5476      -0.78    15.9994
 21596        O2L    506   POPC    O14   5476      -0.78    15.9994
 21597       OSLP    506   POPC    O12   5476      -0.57    15.9994
 21598       OSLP    506   POPC    O11   5476      -0.57    15.9994
 21599       CTL2    506   POPC     C1   5476      -0.08     12.011
 21600       HAL2    506   POPC     HA   5476       0.09      1.008
 21601       HAL2    506   POPC     HB   5476       0.09      1.008
 21602       CTL1    506   POPC     C2   5477       0.17     12.011
 21603       HAL1    506   POPC     HS   5477       0.09      1.008
 21604        OSL    506   POPC    O21   5477      -0.49    15.9994
 21605         CL    506   POPC    C21   5477        0.9     12.011
 21606        OBL    506   POPC    O22   5477      -0.63    15.9994
 21607       CTL2    506   POPC    C22   5477      -0.22     12.011
 21608       HAL2    506   POPC    H2R   5477       0.09      1.008
 21609       HAL2    506   POPC    H2S   5477       0.09      1.008
 21610       CTL2    506   POPC     C3   5478       0.08     12.011
 21611       HAL2    506   POPC     HX   5478       0.09      1.008
 21612       HAL2    506   POPC     HY   5478       0.09      1.008
 21613        OSL    506   POPC    O31   5478      -0.49    15.9994
 21614         CL    506   POPC    C31   5478        0.9     12.011
 21615        OBL    506   POPC    O32   5478      -0.63    15.9994
 21616       CTL2    506   POPC    C32   5478      -0.22     12.011
 21617       HAL2    506   POPC    H2X   5478       0.09      1.008
 21618       HAL2    506   POPC    H2Y   5478       0.09      1.008
 21619       CTL2    506   POPC    C23   5479      -0.18     12.011
 21620       HAL2    506   POPC    H3R   5479       0.09      1.008
 21621       HAL2    506   POPC    H3S   5479       0.09      1.008
 21622       CTL2    506   POPC    C24   5480      -0.18     12.011
 21623       HAL2    506   POPC    H4R   5480       0.09      1.008
 21624       HAL2    506   POPC    H4S   5480       0.09      1.008
 21625       CTL2    506   POPC    C25   5481      -0.18     12.011
 21626       HAL2    506   POPC    H5R   5481       0.09      1.008
 21627       HAL2    506   POPC    H5S   5481       0.09      1.008
 21628       CTL2    506   POPC    C26   5482      -0.18     12.011
 21629       HAL2    506   POPC    H6R   5482       0.09      1.008
 21630       HAL2    506   POPC    H6S   5482       0.09      1.008
 21631       CTL2    506   POPC    C27   5483      -0.18     12.011
 21632       HAL2    506   POPC    H7R   5483       0.09      1.008
 21633       HAL2    506   POPC    H7S   5483       0.09      1.008
 21634       CTL2    506   POPC    C28   5484      -0.18     12.011
 21635       HAL2    506   POPC    H8R   5484       0.09      1.008
 21636       HAL2    506   POPC    H8S   5484       0.09      1.008
 21637       CEL1    506   POPC    C29   5485      -0.15     12.011
 21638       HEL1    506   POPC    H91   5485       0.15      1.008
 21639       CEL1    506   POPC   C210   5486      -0.15     12.011
 21640       HEL1    506   POPC   H101   5486       0.15      1.008
 21641       CTL2    506   POPC   C211   5487      -0.18     12.011
 21642       HAL2    506   POPC   H11R   5487       0.09      1.008
 21643       HAL2    506   POPC   H11S   5487       0.09      1.008
 21644       CTL2    506   POPC   C212   5488      -0.18     12.011
 21645       HAL2    506   POPC   H12R   5488       0.09      1.008
 21646       HAL2    506   POPC   H12S   5488       0.09      1.008
 21647       CTL2    506   POPC   C213   5489      -0.18     12.011
 21648       HAL2    506   POPC   H13R   5489       0.09      1.008
 21649       HAL2    506   POPC   H13S   5489       0.09      1.008
 21650       CTL2    506   POPC   C214   5490      -0.18     12.011
 21651       HAL2    506   POPC   H14R   5490       0.09      1.008
 21652       HAL2    506   POPC   H14S   5490       0.09      1.008
 21653       CTL2    506   POPC   C215   5491      -0.18     12.011
 21654       HAL2    506   POPC   H15R   5491       0.09      1.008
 21655       HAL2    506   POPC   H15S   5491       0.09      1.008
 21656       CTL2    506   POPC   C216   5492      -0.18     12.011
 21657       HAL2    506   POPC   H16R   5492       0.09      1.008
 21658       HAL2    506   POPC   H16S   5492       0.09      1.008
 21659       CTL2    506   POPC   C217   5493      -0.18     12.011
 21660       HAL2    506   POPC   H17R   5493       0.09      1.008
 21661       HAL2    506   POPC   H17S   5493       0.09      1.008
 21662       CTL3    506   POPC   C218   5494      -0.27     12.011
 21663       HAL3    506   POPC   H18R   5494       0.09      1.008
 21664       HAL3    506   POPC   H18S   5494       0.09      1.008
 21665       HAL3    506   POPC   H18T   5494       0.09      1.008
 21666       CTL2    506   POPC    C33   5495      -0.18     12.011
 21667       HAL2    506   POPC    H3X   5495       0.09      1.008
 21668       HAL2    506   POPC    H3Y   5495       0.09      1.008
 21669       CTL2    506   POPC    C34   5496      -0.18     12.011
 21670       HAL2    506   POPC    H4X   5496       0.09      1.008
 21671       HAL2    506   POPC    H4Y   5496       0.09      1.008
 21672       CTL2    506   POPC    C35   5497      -0.18     12.011
 21673       HAL2    506   POPC    H5X   5497       0.09      1.008
 21674       HAL2    506   POPC    H5Y   5497       0.09      1.008
 21675       CTL2    506   POPC    C36   5498      -0.18     12.011
 21676       HAL2    506   POPC    H6X   5498       0.09      1.008
 21677       HAL2    506   POPC    H6Y   5498       0.09      1.008
 21678       CTL2    506   POPC    C37   5499      -0.18     12.011
 21679       HAL2    506   POPC    H7X   5499       0.09      1.008
 21680       HAL2    506   POPC    H7Y   5499       0.09      1.008
 21681       CTL2    506   POPC    C38   5500      -0.18     12.011
 21682       HAL2    506   POPC    H8X   5500       0.09      1.008
 21683       HAL2    506   POPC    H8Y   5500       0.09      1.008
 21684       CTL2    506   POPC    C39   5501      -0.18     12.011
 21685       HAL2    506   POPC    H9X   5501       0.09      1.008
 21686       HAL2    506   POPC    H9Y   5501       0.09      1.008
 21687       CTL2    506   POPC   C310   5502      -0.18     12.011
 21688       HAL2    506   POPC   H10X   5502       0.09      1.008
 21689       HAL2    506   POPC   H10Y   5502       0.09      1.008
 21690       CTL2    506   POPC   C311   5503      -0.18     12.011
 21691       HAL2    506   POPC   H11X   5503       0.09      1.008
 21692       HAL2    506   POPC   H11Y   5503       0.09      1.008
 21693       CTL2    506   POPC   C312   5504      -0.18     12.011
 21694       HAL2    506   POPC   H12X   5504       0.09      1.008
 21695       HAL2    506   POPC   H12Y   5504       0.09      1.008
 21696       CTL2    506   POPC   C313   5505      -0.18     12.011
 21697       HAL2    506   POPC   H13X   5505       0.09      1.008
 21698       HAL2    506   POPC   H13Y   5505       0.09      1.008
 21699       CTL2    506   POPC   C314   5506      -0.18     12.011
 21700       HAL2    506   POPC   H14X   5506       0.09      1.008
 21701       HAL2    506   POPC   H14Y   5506       0.09      1.008
 21702       CTL2    506   POPC   C315   5507      -0.18     12.011
 21703       HAL2    506   POPC   H15X   5507       0.09      1.008
 21704       HAL2    506   POPC   H15Y   5507       0.09      1.008
 21705       CTL3    506   POPC   C316   5508      -0.27     12.011
 21706       HAL3    506   POPC   H16X   5508       0.09      1.008
 21707       HAL3    506   POPC   H16Y   5508       0.09      1.008
 21708       HAL3    506   POPC   H16Z   5508       0.09      1.008   ; qtot 0
; residue 507 POPC rtp POPC q  0.0
 21709        NTL    507   POPC      N   5509       -0.6     14.007
 21710       CTL2    507   POPC    C12   5509       -0.1     12.011
 21711         HL    507   POPC   H12A   5509       0.25      1.008
 21712         HL    507   POPC   H12B   5509       0.25      1.008
 21713       CTL5    507   POPC    C13   5509      -0.35     12.011
 21714         HL    507   POPC   H13A   5509       0.25      1.008
 21715         HL    507   POPC   H13B   5509       0.25      1.008
 21716         HL    507   POPC   H13C   5509       0.25      1.008
 21717       CTL5    507   POPC    C14   5509      -0.35     12.011
 21718         HL    507   POPC   H14A   5509       0.25      1.008
 21719         HL    507   POPC   H14B   5509       0.25      1.008
 21720         HL    507   POPC   H14C   5509       0.25      1.008
 21721       CTL5    507   POPC    C15   5509      -0.35     12.011
 21722         HL    507   POPC   H15A   5509       0.25      1.008
 21723         HL    507   POPC   H15B   5509       0.25      1.008
 21724         HL    507   POPC   H15C   5509       0.25      1.008
 21725       CTL2    507   POPC    C11   5510      -0.08     12.011
 21726       HAL2    507   POPC   H11A   5510       0.09      1.008
 21727       HAL2    507   POPC   H11B   5510       0.09      1.008
 21728         PL    507   POPC      P   5510        1.5     30.974
 21729        O2L    507   POPC    O13   5510      -0.78    15.9994
 21730        O2L    507   POPC    O14   5510      -0.78    15.9994
 21731       OSLP    507   POPC    O12   5510      -0.57    15.9994
 21732       OSLP    507   POPC    O11   5510      -0.57    15.9994
 21733       CTL2    507   POPC     C1   5510      -0.08     12.011
 21734       HAL2    507   POPC     HA   5510       0.09      1.008
 21735       HAL2    507   POPC     HB   5510       0.09      1.008
 21736       CTL1    507   POPC     C2   5511       0.17     12.011
 21737       HAL1    507   POPC     HS   5511       0.09      1.008
 21738        OSL    507   POPC    O21   5511      -0.49    15.9994
 21739         CL    507   POPC    C21   5511        0.9     12.011
 21740        OBL    507   POPC    O22   5511      -0.63    15.9994
 21741       CTL2    507   POPC    C22   5511      -0.22     12.011
 21742       HAL2    507   POPC    H2R   5511       0.09      1.008
 21743       HAL2    507   POPC    H2S   5511       0.09      1.008
 21744       CTL2    507   POPC     C3   5512       0.08     12.011
 21745       HAL2    507   POPC     HX   5512       0.09      1.008
 21746       HAL2    507   POPC     HY   5512       0.09      1.008
 21747        OSL    507   POPC    O31   5512      -0.49    15.9994
 21748         CL    507   POPC    C31   5512        0.9     12.011
 21749        OBL    507   POPC    O32   5512      -0.63    15.9994
 21750       CTL2    507   POPC    C32   5512      -0.22     12.011
 21751       HAL2    507   POPC    H2X   5512       0.09      1.008
 21752       HAL2    507   POPC    H2Y   5512       0.09      1.008
 21753       CTL2    507   POPC    C23   5513      -0.18     12.011
 21754       HAL2    507   POPC    H3R   5513       0.09      1.008
 21755       HAL2    507   POPC    H3S   5513       0.09      1.008
 21756       CTL2    507   POPC    C24   5514      -0.18     12.011
 21757       HAL2    507   POPC    H4R   5514       0.09      1.008
 21758       HAL2    507   POPC    H4S   5514       0.09      1.008
 21759       CTL2    507   POPC    C25   5515      -0.18     12.011
 21760       HAL2    507   POPC    H5R   5515       0.09      1.008
 21761       HAL2    507   POPC    H5S   5515       0.09      1.008
 21762       CTL2    507   POPC    C26   5516      -0.18     12.011
 21763       HAL2    507   POPC    H6R   5516       0.09      1.008
 21764       HAL2    507   POPC    H6S   5516       0.09      1.008
 21765       CTL2    507   POPC    C27   5517      -0.18     12.011
 21766       HAL2    507   POPC    H7R   5517       0.09      1.008
 21767       HAL2    507   POPC    H7S   5517       0.09      1.008
 21768       CTL2    507   POPC    C28   5518      -0.18     12.011
 21769       HAL2    507   POPC    H8R   5518       0.09      1.008
 21770       HAL2    507   POPC    H8S   5518       0.09      1.008
 21771       CEL1    507   POPC    C29   5519      -0.15     12.011
 21772       HEL1    507   POPC    H91   5519       0.15      1.008
 21773       CEL1    507   POPC   C210   5520      -0.15     12.011
 21774       HEL1    507   POPC   H101   5520       0.15      1.008
 21775       CTL2    507   POPC   C211   5521      -0.18     12.011
 21776       HAL2    507   POPC   H11R   5521       0.09      1.008
 21777       HAL2    507   POPC   H11S   5521       0.09      1.008
 21778       CTL2    507   POPC   C212   5522      -0.18     12.011
 21779       HAL2    507   POPC   H12R   5522       0.09      1.008
 21780       HAL2    507   POPC   H12S   5522       0.09      1.008
 21781       CTL2    507   POPC   C213   5523      -0.18     12.011
 21782       HAL2    507   POPC   H13R   5523       0.09      1.008
 21783       HAL2    507   POPC   H13S   5523       0.09      1.008
 21784       CTL2    507   POPC   C214   5524      -0.18     12.011
 21785       HAL2    507   POPC   H14R   5524       0.09      1.008
 21786       HAL2    507   POPC   H14S   5524       0.09      1.008
 21787       CTL2    507   POPC   C215   5525      -0.18     12.011
 21788       HAL2    507   POPC   H15R   5525       0.09      1.008
 21789       HAL2    507   POPC   H15S   5525       0.09      1.008
 21790       CTL2    507   POPC   C216   5526      -0.18     12.011
 21791       HAL2    507   POPC   H16R   5526       0.09      1.008
 21792       HAL2    507   POPC   H16S   5526       0.09      1.008
 21793       CTL2    507   POPC   C217   5527      -0.18     12.011
 21794       HAL2    507   POPC   H17R   5527       0.09      1.008
 21795       HAL2    507   POPC   H17S   5527       0.09      1.008
 21796       CTL3    507   POPC   C218   5528      -0.27     12.011
 21797       HAL3    507   POPC   H18R   5528       0.09      1.008
 21798       HAL3    507   POPC   H18S   5528       0.09      1.008
 21799       HAL3    507   POPC   H18T   5528       0.09      1.008
 21800       CTL2    507   POPC    C33   5529      -0.18     12.011
 21801       HAL2    507   POPC    H3X   5529       0.09      1.008
 21802       HAL2    507   POPC    H3Y   5529       0.09      1.008
 21803       CTL2    507   POPC    C34   5530      -0.18     12.011
 21804       HAL2    507   POPC    H4X   5530       0.09      1.008
 21805       HAL2    507   POPC    H4Y   5530       0.09      1.008
 21806       CTL2    507   POPC    C35   5531      -0.18     12.011
 21807       HAL2    507   POPC    H5X   5531       0.09      1.008
 21808       HAL2    507   POPC    H5Y   5531       0.09      1.008
 21809       CTL2    507   POPC    C36   5532      -0.18     12.011
 21810       HAL2    507   POPC    H6X   5532       0.09      1.008
 21811       HAL2    507   POPC    H6Y   5532       0.09      1.008
 21812       CTL2    507   POPC    C37   5533      -0.18     12.011
 21813       HAL2    507   POPC    H7X   5533       0.09      1.008
 21814       HAL2    507   POPC    H7Y   5533       0.09      1.008
 21815       CTL2    507   POPC    C38   5534      -0.18     12.011
 21816       HAL2    507   POPC    H8X   5534       0.09      1.008
 21817       HAL2    507   POPC    H8Y   5534       0.09      1.008
 21818       CTL2    507   POPC    C39   5535      -0.18     12.011
 21819       HAL2    507   POPC    H9X   5535       0.09      1.008
 21820       HAL2    507   POPC    H9Y   5535       0.09      1.008
 21821       CTL2    507   POPC   C310   5536      -0.18     12.011
 21822       HAL2    507   POPC   H10X   5536       0.09      1.008
 21823       HAL2    507   POPC   H10Y   5536       0.09      1.008
 21824       CTL2    507   POPC   C311   5537      -0.18     12.011
 21825       HAL2    507   POPC   H11X   5537       0.09      1.008
 21826       HAL2    507   POPC   H11Y   5537       0.09      1.008
 21827       CTL2    507   POPC   C312   5538      -0.18     12.011
 21828       HAL2    507   POPC   H12X   5538       0.09      1.008
 21829       HAL2    507   POPC   H12Y   5538       0.09      1.008
 21830       CTL2    507   POPC   C313   5539      -0.18     12.011
 21831       HAL2    507   POPC   H13X   5539       0.09      1.008
 21832       HAL2    507   POPC   H13Y   5539       0.09      1.008
 21833       CTL2    507   POPC   C314   5540      -0.18     12.011
 21834       HAL2    507   POPC   H14X   5540       0.09      1.008
 21835       HAL2    507   POPC   H14Y   5540       0.09      1.008
 21836       CTL2    507   POPC   C315   5541      -0.18     12.011
 21837       HAL2    507   POPC   H15X   5541       0.09      1.008
 21838       HAL2    507   POPC   H15Y   5541       0.09      1.008
 21839       CTL3    507   POPC   C316   5542      -0.27     12.011
 21840       HAL3    507   POPC   H16X   5542       0.09      1.008
 21841       HAL3    507   POPC   H16Y   5542       0.09      1.008
 21842       HAL3    507   POPC   H16Z   5542       0.09      1.008   ; qtot 0
; residue 508 POPC rtp POPC q  0.0
 21843        NTL    508   POPC      N   5543       -0.6     14.007
 21844       CTL2    508   POPC    C12   5543       -0.1     12.011
 21845         HL    508   POPC   H12A   5543       0.25      1.008
 21846         HL    508   POPC   H12B   5543       0.25      1.008
 21847       CTL5    508   POPC    C13   5543      -0.35     12.011
 21848         HL    508   POPC   H13A   5543       0.25      1.008
 21849         HL    508   POPC   H13B   5543       0.25      1.008
 21850         HL    508   POPC   H13C   5543       0.25      1.008
 21851       CTL5    508   POPC    C14   5543      -0.35     12.011
 21852         HL    508   POPC   H14A   5543       0.25      1.008
 21853         HL    508   POPC   H14B   5543       0.25      1.008
 21854         HL    508   POPC   H14C   5543       0.25      1.008
 21855       CTL5    508   POPC    C15   5543      -0.35     12.011
 21856         HL    508   POPC   H15A   5543       0.25      1.008
 21857         HL    508   POPC   H15B   5543       0.25      1.008
 21858         HL    508   POPC   H15C   5543       0.25      1.008
 21859       CTL2    508   POPC    C11   5544      -0.08     12.011
 21860       HAL2    508   POPC   H11A   5544       0.09      1.008
 21861       HAL2    508   POPC   H11B   5544       0.09      1.008
 21862         PL    508   POPC      P   5544        1.5     30.974
 21863        O2L    508   POPC    O13   5544      -0.78    15.9994
 21864        O2L    508   POPC    O14   5544      -0.78    15.9994
 21865       OSLP    508   POPC    O12   5544      -0.57    15.9994
 21866       OSLP    508   POPC    O11   5544      -0.57    15.9994
 21867       CTL2    508   POPC     C1   5544      -0.08     12.011
 21868       HAL2    508   POPC     HA   5544       0.09      1.008
 21869       HAL2    508   POPC     HB   5544       0.09      1.008
 21870       CTL1    508   POPC     C2   5545       0.17     12.011
 21871       HAL1    508   POPC     HS   5545       0.09      1.008
 21872        OSL    508   POPC    O21   5545      -0.49    15.9994
 21873         CL    508   POPC    C21   5545        0.9     12.011
 21874        OBL    508   POPC    O22   5545      -0.63    15.9994
 21875       CTL2    508   POPC    C22   5545      -0.22     12.011
 21876       HAL2    508   POPC    H2R   5545       0.09      1.008
 21877       HAL2    508   POPC    H2S   5545       0.09      1.008
 21878       CTL2    508   POPC     C3   5546       0.08     12.011
 21879       HAL2    508   POPC     HX   5546       0.09      1.008
 21880       HAL2    508   POPC     HY   5546       0.09      1.008
 21881        OSL    508   POPC    O31   5546      -0.49    15.9994
 21882         CL    508   POPC    C31   5546        0.9     12.011
 21883        OBL    508   POPC    O32   5546      -0.63    15.9994
 21884       CTL2    508   POPC    C32   5546      -0.22     12.011
 21885       HAL2    508   POPC    H2X   5546       0.09      1.008
 21886       HAL2    508   POPC    H2Y   5546       0.09      1.008
 21887       CTL2    508   POPC    C23   5547      -0.18     12.011
 21888       HAL2    508   POPC    H3R   5547       0.09      1.008
 21889       HAL2    508   POPC    H3S   5547       0.09      1.008
 21890       CTL2    508   POPC    C24   5548      -0.18     12.011
 21891       HAL2    508   POPC    H4R   5548       0.09      1.008
 21892       HAL2    508   POPC    H4S   5548       0.09      1.008
 21893       CTL2    508   POPC    C25   5549      -0.18     12.011
 21894       HAL2    508   POPC    H5R   5549       0.09      1.008
 21895       HAL2    508   POPC    H5S   5549       0.09      1.008
 21896       CTL2    508   POPC    C26   5550      -0.18     12.011
 21897       HAL2    508   POPC    H6R   5550       0.09      1.008
 21898       HAL2    508   POPC    H6S   5550       0.09      1.008
 21899       CTL2    508   POPC    C27   5551      -0.18     12.011
 21900       HAL2    508   POPC    H7R   5551       0.09      1.008
 21901       HAL2    508   POPC    H7S   5551       0.09      1.008
 21902       CTL2    508   POPC    C28   5552      -0.18     12.011
 21903       HAL2    508   POPC    H8R   5552       0.09      1.008
 21904       HAL2    508   POPC    H8S   5552       0.09      1.008
 21905       CEL1    508   POPC    C29   5553      -0.15     12.011
 21906       HEL1    508   POPC    H91   5553       0.15      1.008
 21907       CEL1    508   POPC   C210   5554      -0.15     12.011
 21908       HEL1    508   POPC   H101   5554       0.15      1.008
 21909       CTL2    508   POPC   C211   5555      -0.18     12.011
 21910       HAL2    508   POPC   H11R   5555       0.09      1.008
 21911       HAL2    508   POPC   H11S   5555       0.09      1.008
 21912       CTL2    508   POPC   C212   5556      -0.18     12.011
 21913       HAL2    508   POPC   H12R   5556       0.09      1.008
 21914       HAL2    508   POPC   H12S   5556       0.09      1.008
 21915       CTL2    508   POPC   C213   5557      -0.18     12.011
 21916       HAL2    508   POPC   H13R   5557       0.09      1.008
 21917       HAL2    508   POPC   H13S   5557       0.09      1.008
 21918       CTL2    508   POPC   C214   5558      -0.18     12.011
 21919       HAL2    508   POPC   H14R   5558       0.09      1.008
 21920       HAL2    508   POPC   H14S   5558       0.09      1.008
 21921       CTL2    508   POPC   C215   5559      -0.18     12.011
 21922       HAL2    508   POPC   H15R   5559       0.09      1.008
 21923       HAL2    508   POPC   H15S   5559       0.09      1.008
 21924       CTL2    508   POPC   C216   5560      -0.18     12.011
 21925       HAL2    508   POPC   H16R   5560       0.09      1.008
 21926       HAL2    508   POPC   H16S   5560       0.09      1.008
 21927       CTL2    508   POPC   C217   5561      -0.18     12.011
 21928       HAL2    508   POPC   H17R   5561       0.09      1.008
 21929       HAL2    508   POPC   H17S   5561       0.09      1.008
 21930       CTL3    508   POPC   C218   5562      -0.27     12.011
 21931       HAL3    508   POPC   H18R   5562       0.09      1.008
 21932       HAL3    508   POPC   H18S   5562       0.09      1.008
 21933       HAL3    508   POPC   H18T   5562       0.09      1.008
 21934       CTL2    508   POPC    C33   5563      -0.18     12.011
 21935       HAL2    508   POPC    H3X   5563       0.09      1.008
 21936       HAL2    508   POPC    H3Y   5563       0.09      1.008
 21937       CTL2    508   POPC    C34   5564      -0.18     12.011
 21938       HAL2    508   POPC    H4X   5564       0.09      1.008
 21939       HAL2    508   POPC    H4Y   5564       0.09      1.008
 21940       CTL2    508   POPC    C35   5565      -0.18     12.011
 21941       HAL2    508   POPC    H5X   5565       0.09      1.008
 21942       HAL2    508   POPC    H5Y   5565       0.09      1.008
 21943       CTL2    508   POPC    C36   5566      -0.18     12.011
 21944       HAL2    508   POPC    H6X   5566       0.09      1.008
 21945       HAL2    508   POPC    H6Y   5566       0.09      1.008
 21946       CTL2    508   POPC    C37   5567      -0.18     12.011
 21947       HAL2    508   POPC    H7X   5567       0.09      1.008
 21948       HAL2    508   POPC    H7Y   5567       0.09      1.008
 21949       CTL2    508   POPC    C38   5568      -0.18     12.011
 21950       HAL2    508   POPC    H8X   5568       0.09      1.008
 21951       HAL2    508   POPC    H8Y   5568       0.09      1.008
 21952       CTL2    508   POPC    C39   5569      -0.18     12.011
 21953       HAL2    508   POPC    H9X   5569       0.09      1.008
 21954       HAL2    508   POPC    H9Y   5569       0.09      1.008
 21955       CTL2    508   POPC   C310   5570      -0.18     12.011
 21956       HAL2    508   POPC   H10X   5570       0.09      1.008
 21957       HAL2    508   POPC   H10Y   5570       0.09      1.008
 21958       CTL2    508   POPC   C311   5571      -0.18     12.011
 21959       HAL2    508   POPC   H11X   5571       0.09      1.008
 21960       HAL2    508   POPC   H11Y   5571       0.09      1.008
 21961       CTL2    508   POPC   C312   5572      -0.18     12.011
 21962       HAL2    508   POPC   H12X   5572       0.09      1.008
 21963       HAL2    508   POPC   H12Y   5572       0.09      1.008
 21964       CTL2    508   POPC   C313   5573      -0.18     12.011
 21965       HAL2    508   POPC   H13X   5573       0.09      1.008
 21966       HAL2    508   POPC   H13Y   5573       0.09      1.008
 21967       CTL2    508   POPC   C314   5574      -0.18     12.011
 21968       HAL2    508   POPC   H14X   5574       0.09      1.008
 21969       HAL2    508   POPC   H14Y   5574       0.09      1.008
 21970       CTL2    508   POPC   C315   5575      -0.18     12.011
 21971       HAL2    508   POPC   H15X   5575       0.09      1.008
 21972       HAL2    508   POPC   H15Y   5575       0.09      1.008
 21973       CTL3    508   POPC   C316   5576      -0.27     12.011
 21974       HAL3    508   POPC   H16X   5576       0.09      1.008
 21975       HAL3    508   POPC   H16Y   5576       0.09      1.008
 21976       HAL3    508   POPC   H16Z   5576       0.09      1.008   ; qtot 0
; residue 509 POPC rtp POPC q  0.0
 21977        NTL    509   POPC      N   5577       -0.6     14.007
 21978       CTL2    509   POPC    C12   5577       -0.1     12.011
 21979         HL    509   POPC   H12A   5577       0.25      1.008
 21980         HL    509   POPC   H12B   5577       0.25      1.008
 21981       CTL5    509   POPC    C13   5577      -0.35     12.011
 21982         HL    509   POPC   H13A   5577       0.25      1.008
 21983         HL    509   POPC   H13B   5577       0.25      1.008
 21984         HL    509   POPC   H13C   5577       0.25      1.008
 21985       CTL5    509   POPC    C14   5577      -0.35     12.011
 21986         HL    509   POPC   H14A   5577       0.25      1.008
 21987         HL    509   POPC   H14B   5577       0.25      1.008
 21988         HL    509   POPC   H14C   5577       0.25      1.008
 21989       CTL5    509   POPC    C15   5577      -0.35     12.011
 21990         HL    509   POPC   H15A   5577       0.25      1.008
 21991         HL    509   POPC   H15B   5577       0.25      1.008
 21992         HL    509   POPC   H15C   5577       0.25      1.008
 21993       CTL2    509   POPC    C11   5578      -0.08     12.011
 21994       HAL2    509   POPC   H11A   5578       0.09      1.008
 21995       HAL2    509   POPC   H11B   5578       0.09      1.008
 21996         PL    509   POPC      P   5578        1.5     30.974
 21997        O2L    509   POPC    O13   5578      -0.78    15.9994
 21998        O2L    509   POPC    O14   5578      -0.78    15.9994
 21999       OSLP    509   POPC    O12   5578      -0.57    15.9994
 22000       OSLP    509   POPC    O11   5578      -0.57    15.9994
 22001       CTL2    509   POPC     C1   5578      -0.08     12.011
 22002       HAL2    509   POPC     HA   5578       0.09      1.008
 22003       HAL2    509   POPC     HB   5578       0.09      1.008
 22004       CTL1    509   POPC     C2   5579       0.17     12.011
 22005       HAL1    509   POPC     HS   5579       0.09      1.008
 22006        OSL    509   POPC    O21   5579      -0.49    15.9994
 22007         CL    509   POPC    C21   5579        0.9     12.011
 22008        OBL    509   POPC    O22   5579      -0.63    15.9994
 22009       CTL2    509   POPC    C22   5579      -0.22     12.011
 22010       HAL2    509   POPC    H2R   5579       0.09      1.008
 22011       HAL2    509   POPC    H2S   5579       0.09      1.008
 22012       CTL2    509   POPC     C3   5580       0.08     12.011
 22013       HAL2    509   POPC     HX   5580       0.09      1.008
 22014       HAL2    509   POPC     HY   5580       0.09      1.008
 22015        OSL    509   POPC    O31   5580      -0.49    15.9994
 22016         CL    509   POPC    C31   5580        0.9     12.011
 22017        OBL    509   POPC    O32   5580      -0.63    15.9994
 22018       CTL2    509   POPC    C32   5580      -0.22     12.011
 22019       HAL2    509   POPC    H2X   5580       0.09      1.008
 22020       HAL2    509   POPC    H2Y   5580       0.09      1.008
 22021       CTL2    509   POPC    C23   5581      -0.18     12.011
 22022       HAL2    509   POPC    H3R   5581       0.09      1.008
 22023       HAL2    509   POPC    H3S   5581       0.09      1.008
 22024       CTL2    509   POPC    C24   5582      -0.18     12.011
 22025       HAL2    509   POPC    H4R   5582       0.09      1.008
 22026       HAL2    509   POPC    H4S   5582       0.09      1.008
 22027       CTL2    509   POPC    C25   5583      -0.18     12.011
 22028       HAL2    509   POPC    H5R   5583       0.09      1.008
 22029       HAL2    509   POPC    H5S   5583       0.09      1.008
 22030       CTL2    509   POPC    C26   5584      -0.18     12.011
 22031       HAL2    509   POPC    H6R   5584       0.09      1.008
 22032       HAL2    509   POPC    H6S   5584       0.09      1.008
 22033       CTL2    509   POPC    C27   5585      -0.18     12.011
 22034       HAL2    509   POPC    H7R   5585       0.09      1.008
 22035       HAL2    509   POPC    H7S   5585       0.09      1.008
 22036       CTL2    509   POPC    C28   5586      -0.18     12.011
 22037       HAL2    509   POPC    H8R   5586       0.09      1.008
 22038       HAL2    509   POPC    H8S   5586       0.09      1.008
 22039       CEL1    509   POPC    C29   5587      -0.15     12.011
 22040       HEL1    509   POPC    H91   5587       0.15      1.008
 22041       CEL1    509   POPC   C210   5588      -0.15     12.011
 22042       HEL1    509   POPC   H101   5588       0.15      1.008
 22043       CTL2    509   POPC   C211   5589      -0.18     12.011
 22044       HAL2    509   POPC   H11R   5589       0.09      1.008
 22045       HAL2    509   POPC   H11S   5589       0.09      1.008
 22046       CTL2    509   POPC   C212   5590      -0.18     12.011
 22047       HAL2    509   POPC   H12R   5590       0.09      1.008
 22048       HAL2    509   POPC   H12S   5590       0.09      1.008
 22049       CTL2    509   POPC   C213   5591      -0.18     12.011
 22050       HAL2    509   POPC   H13R   5591       0.09      1.008
 22051       HAL2    509   POPC   H13S   5591       0.09      1.008
 22052       CTL2    509   POPC   C214   5592      -0.18     12.011
 22053       HAL2    509   POPC   H14R   5592       0.09      1.008
 22054       HAL2    509   POPC   H14S   5592       0.09      1.008
 22055       CTL2    509   POPC   C215   5593      -0.18     12.011
 22056       HAL2    509   POPC   H15R   5593       0.09      1.008
 22057       HAL2    509   POPC   H15S   5593       0.09      1.008
 22058       CTL2    509   POPC   C216   5594      -0.18     12.011
 22059       HAL2    509   POPC   H16R   5594       0.09      1.008
 22060       HAL2    509   POPC   H16S   5594       0.09      1.008
 22061       CTL2    509   POPC   C217   5595      -0.18     12.011
 22062       HAL2    509   POPC   H17R   5595       0.09      1.008
 22063       HAL2    509   POPC   H17S   5595       0.09      1.008
 22064       CTL3    509   POPC   C218   5596      -0.27     12.011
 22065       HAL3    509   POPC   H18R   5596       0.09      1.008
 22066       HAL3    509   POPC   H18S   5596       0.09      1.008
 22067       HAL3    509   POPC   H18T   5596       0.09      1.008
 22068       CTL2    509   POPC    C33   5597      -0.18     12.011
 22069       HAL2    509   POPC    H3X   5597       0.09      1.008
 22070       HAL2    509   POPC    H3Y   5597       0.09      1.008
 22071       CTL2    509   POPC    C34   5598      -0.18     12.011
 22072       HAL2    509   POPC    H4X   5598       0.09      1.008
 22073       HAL2    509   POPC    H4Y   5598       0.09      1.008
 22074       CTL2    509   POPC    C35   5599      -0.18     12.011
 22075       HAL2    509   POPC    H5X   5599       0.09      1.008
 22076       HAL2    509   POPC    H5Y   5599       0.09      1.008
 22077       CTL2    509   POPC    C36   5600      -0.18     12.011
 22078       HAL2    509   POPC    H6X   5600       0.09      1.008
 22079       HAL2    509   POPC    H6Y   5600       0.09      1.008
 22080       CTL2    509   POPC    C37   5601      -0.18     12.011
 22081       HAL2    509   POPC    H7X   5601       0.09      1.008
 22082       HAL2    509   POPC    H7Y   5601       0.09      1.008
 22083       CTL2    509   POPC    C38   5602      -0.18     12.011
 22084       HAL2    509   POPC    H8X   5602       0.09      1.008
 22085       HAL2    509   POPC    H8Y   5602       0.09      1.008
 22086       CTL2    509   POPC    C39   5603      -0.18     12.011
 22087       HAL2    509   POPC    H9X   5603       0.09      1.008
 22088       HAL2    509   POPC    H9Y   5603       0.09      1.008
 22089       CTL2    509   POPC   C310   5604      -0.18     12.011
 22090       HAL2    509   POPC   H10X   5604       0.09      1.008
 22091       HAL2    509   POPC   H10Y   5604       0.09      1.008
 22092       CTL2    509   POPC   C311   5605      -0.18     12.011
 22093       HAL2    509   POPC   H11X   5605       0.09      1.008
 22094       HAL2    509   POPC   H11Y   5605       0.09      1.008
 22095       CTL2    509   POPC   C312   5606      -0.18     12.011
 22096       HAL2    509   POPC   H12X   5606       0.09      1.008
 22097       HAL2    509   POPC   H12Y   5606       0.09      1.008
 22098       CTL2    509   POPC   C313   5607      -0.18     12.011
 22099       HAL2    509   POPC   H13X   5607       0.09      1.008
 22100       HAL2    509   POPC   H13Y   5607       0.09      1.008
 22101       CTL2    509   POPC   C314   5608      -0.18     12.011
 22102       HAL2    509   POPC   H14X   5608       0.09      1.008
 22103       HAL2    509   POPC   H14Y   5608       0.09      1.008
 22104       CTL2    509   POPC   C315   5609      -0.18     12.011
 22105       HAL2    509   POPC   H15X   5609       0.09      1.008
 22106       HAL2    509   POPC   H15Y   5609       0.09      1.008
 22107       CTL3    509   POPC   C316   5610      -0.27     12.011
 22108       HAL3    509   POPC   H16X   5610       0.09      1.008
 22109       HAL3    509   POPC   H16Y   5610       0.09      1.008
 22110       HAL3    509   POPC   H16Z   5610       0.09      1.008   ; qtot 0
; residue 510 POPC rtp POPC q  0.0
 22111        NTL    510   POPC      N   5611       -0.6     14.007
 22112       CTL2    510   POPC    C12   5611       -0.1     12.011
 22113         HL    510   POPC   H12A   5611       0.25      1.008
 22114         HL    510   POPC   H12B   5611       0.25      1.008
 22115       CTL5    510   POPC    C13   5611      -0.35     12.011
 22116         HL    510   POPC   H13A   5611       0.25      1.008
 22117         HL    510   POPC   H13B   5611       0.25      1.008
 22118         HL    510   POPC   H13C   5611       0.25      1.008
 22119       CTL5    510   POPC    C14   5611      -0.35     12.011
 22120         HL    510   POPC   H14A   5611       0.25      1.008
 22121         HL    510   POPC   H14B   5611       0.25      1.008
 22122         HL    510   POPC   H14C   5611       0.25      1.008
 22123       CTL5    510   POPC    C15   5611      -0.35     12.011
 22124         HL    510   POPC   H15A   5611       0.25      1.008
 22125         HL    510   POPC   H15B   5611       0.25      1.008
 22126         HL    510   POPC   H15C   5611       0.25      1.008
 22127       CTL2    510   POPC    C11   5612      -0.08     12.011
 22128       HAL2    510   POPC   H11A   5612       0.09      1.008
 22129       HAL2    510   POPC   H11B   5612       0.09      1.008
 22130         PL    510   POPC      P   5612        1.5     30.974
 22131        O2L    510   POPC    O13   5612      -0.78    15.9994
 22132        O2L    510   POPC    O14   5612      -0.78    15.9994
 22133       OSLP    510   POPC    O12   5612      -0.57    15.9994
 22134       OSLP    510   POPC    O11   5612      -0.57    15.9994
 22135       CTL2    510   POPC     C1   5612      -0.08     12.011
 22136       HAL2    510   POPC     HA   5612       0.09      1.008
 22137       HAL2    510   POPC     HB   5612       0.09      1.008
 22138       CTL1    510   POPC     C2   5613       0.17     12.011
 22139       HAL1    510   POPC     HS   5613       0.09      1.008
 22140        OSL    510   POPC    O21   5613      -0.49    15.9994
 22141         CL    510   POPC    C21   5613        0.9     12.011
 22142        OBL    510   POPC    O22   5613      -0.63    15.9994
 22143       CTL2    510   POPC    C22   5613      -0.22     12.011
 22144       HAL2    510   POPC    H2R   5613       0.09      1.008
 22145       HAL2    510   POPC    H2S   5613       0.09      1.008
 22146       CTL2    510   POPC     C3   5614       0.08     12.011
 22147       HAL2    510   POPC     HX   5614       0.09      1.008
 22148       HAL2    510   POPC     HY   5614       0.09      1.008
 22149        OSL    510   POPC    O31   5614      -0.49    15.9994
 22150         CL    510   POPC    C31   5614        0.9     12.011
 22151        OBL    510   POPC    O32   5614      -0.63    15.9994
 22152       CTL2    510   POPC    C32   5614      -0.22     12.011
 22153       HAL2    510   POPC    H2X   5614       0.09      1.008
 22154       HAL2    510   POPC    H2Y   5614       0.09      1.008
 22155       CTL2    510   POPC    C23   5615      -0.18     12.011
 22156       HAL2    510   POPC    H3R   5615       0.09      1.008
 22157       HAL2    510   POPC    H3S   5615       0.09      1.008
 22158       CTL2    510   POPC    C24   5616      -0.18     12.011
 22159       HAL2    510   POPC    H4R   5616       0.09      1.008
 22160       HAL2    510   POPC    H4S   5616       0.09      1.008
 22161       CTL2    510   POPC    C25   5617      -0.18     12.011
 22162       HAL2    510   POPC    H5R   5617       0.09      1.008
 22163       HAL2    510   POPC    H5S   5617       0.09      1.008
 22164       CTL2    510   POPC    C26   5618      -0.18     12.011
 22165       HAL2    510   POPC    H6R   5618       0.09      1.008
 22166       HAL2    510   POPC    H6S   5618       0.09      1.008
 22167       CTL2    510   POPC    C27   5619      -0.18     12.011
 22168       HAL2    510   POPC    H7R   5619       0.09      1.008
 22169       HAL2    510   POPC    H7S   5619       0.09      1.008
 22170       CTL2    510   POPC    C28   5620      -0.18     12.011
 22171       HAL2    510   POPC    H8R   5620       0.09      1.008
 22172       HAL2    510   POPC    H8S   5620       0.09      1.008
 22173       CEL1    510   POPC    C29   5621      -0.15     12.011
 22174       HEL1    510   POPC    H91   5621       0.15      1.008
 22175       CEL1    510   POPC   C210   5622      -0.15     12.011
 22176       HEL1    510   POPC   H101   5622       0.15      1.008
 22177       CTL2    510   POPC   C211   5623      -0.18     12.011
 22178       HAL2    510   POPC   H11R   5623       0.09      1.008
 22179       HAL2    510   POPC   H11S   5623       0.09      1.008
 22180       CTL2    510   POPC   C212   5624      -0.18     12.011
 22181       HAL2    510   POPC   H12R   5624       0.09      1.008
 22182       HAL2    510   POPC   H12S   5624       0.09      1.008
 22183       CTL2    510   POPC   C213   5625      -0.18     12.011
 22184       HAL2    510   POPC   H13R   5625       0.09      1.008
 22185       HAL2    510   POPC   H13S   5625       0.09      1.008
 22186       CTL2    510   POPC   C214   5626      -0.18     12.011
 22187       HAL2    510   POPC   H14R   5626       0.09      1.008
 22188       HAL2    510   POPC   H14S   5626       0.09      1.008
 22189       CTL2    510   POPC   C215   5627      -0.18     12.011
 22190       HAL2    510   POPC   H15R   5627       0.09      1.008
 22191       HAL2    510   POPC   H15S   5627       0.09      1.008
 22192       CTL2    510   POPC   C216   5628      -0.18     12.011
 22193       HAL2    510   POPC   H16R   5628       0.09      1.008
 22194       HAL2    510   POPC   H16S   5628       0.09      1.008
 22195       CTL2    510   POPC   C217   5629      -0.18     12.011
 22196       HAL2    510   POPC   H17R   5629       0.09      1.008
 22197       HAL2    510   POPC   H17S   5629       0.09      1.008
 22198       CTL3    510   POPC   C218   5630      -0.27     12.011
 22199       HAL3    510   POPC   H18R   5630       0.09      1.008
 22200       HAL3    510   POPC   H18S   5630       0.09      1.008
 22201       HAL3    510   POPC   H18T   5630       0.09      1.008
 22202       CTL2    510   POPC    C33   5631      -0.18     12.011
 22203       HAL2    510   POPC    H3X   5631       0.09      1.008
 22204       HAL2    510   POPC    H3Y   5631       0.09      1.008
 22205       CTL2    510   POPC    C34   5632      -0.18     12.011
 22206       HAL2    510   POPC    H4X   5632       0.09      1.008
 22207       HAL2    510   POPC    H4Y   5632       0.09      1.008
 22208       CTL2    510   POPC    C35   5633      -0.18     12.011
 22209       HAL2    510   POPC    H5X   5633       0.09      1.008
 22210       HAL2    510   POPC    H5Y   5633       0.09      1.008
 22211       CTL2    510   POPC    C36   5634      -0.18     12.011
 22212       HAL2    510   POPC    H6X   5634       0.09      1.008
 22213       HAL2    510   POPC    H6Y   5634       0.09      1.008
 22214       CTL2    510   POPC    C37   5635      -0.18     12.011
 22215       HAL2    510   POPC    H7X   5635       0.09      1.008
 22216       HAL2    510   POPC    H7Y   5635       0.09      1.008
 22217       CTL2    510   POPC    C38   5636      -0.18     12.011
 22218       HAL2    510   POPC    H8X   5636       0.09      1.008
 22219       HAL2    510   POPC    H8Y   5636       0.09      1.008
 22220       CTL2    510   POPC    C39   5637      -0.18     12.011
 22221       HAL2    510   POPC    H9X   5637       0.09      1.008
 22222       HAL2    510   POPC    H9Y   5637       0.09      1.008
 22223       CTL2    510   POPC   C310   5638      -0.18     12.011
 22224       HAL2    510   POPC   H10X   5638       0.09      1.008
 22225       HAL2    510   POPC   H10Y   5638       0.09      1.008
 22226       CTL2    510   POPC   C311   5639      -0.18     12.011
 22227       HAL2    510   POPC   H11X   5639       0.09      1.008
 22228       HAL2    510   POPC   H11Y   5639       0.09      1.008
 22229       CTL2    510   POPC   C312   5640      -0.18     12.011
 22230       HAL2    510   POPC   H12X   5640       0.09      1.008
 22231       HAL2    510   POPC   H12Y   5640       0.09      1.008
 22232       CTL2    510   POPC   C313   5641      -0.18     12.011
 22233       HAL2    510   POPC   H13X   5641       0.09      1.008
 22234       HAL2    510   POPC   H13Y   5641       0.09      1.008
 22235       CTL2    510   POPC   C314   5642      -0.18     12.011
 22236       HAL2    510   POPC   H14X   5642       0.09      1.008
 22237       HAL2    510   POPC   H14Y   5642       0.09      1.008
 22238       CTL2    510   POPC   C315   5643      -0.18     12.011
 22239       HAL2    510   POPC   H15X   5643       0.09      1.008
 22240       HAL2    510   POPC   H15Y   5643       0.09      1.008
 22241       CTL3    510   POPC   C316   5644      -0.27     12.011
 22242       HAL3    510   POPC   H16X   5644       0.09      1.008
 22243       HAL3    510   POPC   H16Y   5644       0.09      1.008
 22244       HAL3    510   POPC   H16Z   5644       0.09      1.008   ; qtot 0
; residue 511 POPC rtp POPC q  0.0
 22245        NTL    511   POPC      N   5645       -0.6     14.007
 22246       CTL2    511   POPC    C12   5645       -0.1     12.011
 22247         HL    511   POPC   H12A   5645       0.25      1.008
 22248         HL    511   POPC   H12B   5645       0.25      1.008
 22249       CTL5    511   POPC    C13   5645      -0.35     12.011
 22250         HL    511   POPC   H13A   5645       0.25      1.008
 22251         HL    511   POPC   H13B   5645       0.25      1.008
 22252         HL    511   POPC   H13C   5645       0.25      1.008
 22253       CTL5    511   POPC    C14   5645      -0.35     12.011
 22254         HL    511   POPC   H14A   5645       0.25      1.008
 22255         HL    511   POPC   H14B   5645       0.25      1.008
 22256         HL    511   POPC   H14C   5645       0.25      1.008
 22257       CTL5    511   POPC    C15   5645      -0.35     12.011
 22258         HL    511   POPC   H15A   5645       0.25      1.008
 22259         HL    511   POPC   H15B   5645       0.25      1.008
 22260         HL    511   POPC   H15C   5645       0.25      1.008
 22261       CTL2    511   POPC    C11   5646      -0.08     12.011
 22262       HAL2    511   POPC   H11A   5646       0.09      1.008
 22263       HAL2    511   POPC   H11B   5646       0.09      1.008
 22264         PL    511   POPC      P   5646        1.5     30.974
 22265        O2L    511   POPC    O13   5646      -0.78    15.9994
 22266        O2L    511   POPC    O14   5646      -0.78    15.9994
 22267       OSLP    511   POPC    O12   5646      -0.57    15.9994
 22268       OSLP    511   POPC    O11   5646      -0.57    15.9994
 22269       CTL2    511   POPC     C1   5646      -0.08     12.011
 22270       HAL2    511   POPC     HA   5646       0.09      1.008
 22271       HAL2    511   POPC     HB   5646       0.09      1.008
 22272       CTL1    511   POPC     C2   5647       0.17     12.011
 22273       HAL1    511   POPC     HS   5647       0.09      1.008
 22274        OSL    511   POPC    O21   5647      -0.49    15.9994
 22275         CL    511   POPC    C21   5647        0.9     12.011
 22276        OBL    511   POPC    O22   5647      -0.63    15.9994
 22277       CTL2    511   POPC    C22   5647      -0.22     12.011
 22278       HAL2    511   POPC    H2R   5647       0.09      1.008
 22279       HAL2    511   POPC    H2S   5647       0.09      1.008
 22280       CTL2    511   POPC     C3   5648       0.08     12.011
 22281       HAL2    511   POPC     HX   5648       0.09      1.008
 22282       HAL2    511   POPC     HY   5648       0.09      1.008
 22283        OSL    511   POPC    O31   5648      -0.49    15.9994
 22284         CL    511   POPC    C31   5648        0.9     12.011
 22285        OBL    511   POPC    O32   5648      -0.63    15.9994
 22286       CTL2    511   POPC    C32   5648      -0.22     12.011
 22287       HAL2    511   POPC    H2X   5648       0.09      1.008
 22288       HAL2    511   POPC    H2Y   5648       0.09      1.008
 22289       CTL2    511   POPC    C23   5649      -0.18     12.011
 22290       HAL2    511   POPC    H3R   5649       0.09      1.008
 22291       HAL2    511   POPC    H3S   5649       0.09      1.008
 22292       CTL2    511   POPC    C24   5650      -0.18     12.011
 22293       HAL2    511   POPC    H4R   5650       0.09      1.008
 22294       HAL2    511   POPC    H4S   5650       0.09      1.008
 22295       CTL2    511   POPC    C25   5651      -0.18     12.011
 22296       HAL2    511   POPC    H5R   5651       0.09      1.008
 22297       HAL2    511   POPC    H5S   5651       0.09      1.008
 22298       CTL2    511   POPC    C26   5652      -0.18     12.011
 22299       HAL2    511   POPC    H6R   5652       0.09      1.008
 22300       HAL2    511   POPC    H6S   5652       0.09      1.008
 22301       CTL2    511   POPC    C27   5653      -0.18     12.011
 22302       HAL2    511   POPC    H7R   5653       0.09      1.008
 22303       HAL2    511   POPC    H7S   5653       0.09      1.008
 22304       CTL2    511   POPC    C28   5654      -0.18     12.011
 22305       HAL2    511   POPC    H8R   5654       0.09      1.008
 22306       HAL2    511   POPC    H8S   5654       0.09      1.008
 22307       CEL1    511   POPC    C29   5655      -0.15     12.011
 22308       HEL1    511   POPC    H91   5655       0.15      1.008
 22309       CEL1    511   POPC   C210   5656      -0.15     12.011
 22310       HEL1    511   POPC   H101   5656       0.15      1.008
 22311       CTL2    511   POPC   C211   5657      -0.18     12.011
 22312       HAL2    511   POPC   H11R   5657       0.09      1.008
 22313       HAL2    511   POPC   H11S   5657       0.09      1.008
 22314       CTL2    511   POPC   C212   5658      -0.18     12.011
 22315       HAL2    511   POPC   H12R   5658       0.09      1.008
 22316       HAL2    511   POPC   H12S   5658       0.09      1.008
 22317       CTL2    511   POPC   C213   5659      -0.18     12.011
 22318       HAL2    511   POPC   H13R   5659       0.09      1.008
 22319       HAL2    511   POPC   H13S   5659       0.09      1.008
 22320       CTL2    511   POPC   C214   5660      -0.18     12.011
 22321       HAL2    511   POPC   H14R   5660       0.09      1.008
 22322       HAL2    511   POPC   H14S   5660       0.09      1.008
 22323       CTL2    511   POPC   C215   5661      -0.18     12.011
 22324       HAL2    511   POPC   H15R   5661       0.09      1.008
 22325       HAL2    511   POPC   H15S   5661       0.09      1.008
 22326       CTL2    511   POPC   C216   5662      -0.18     12.011
 22327       HAL2    511   POPC   H16R   5662       0.09      1.008
 22328       HAL2    511   POPC   H16S   5662       0.09      1.008
 22329       CTL2    511   POPC   C217   5663      -0.18     12.011
 22330       HAL2    511   POPC   H17R   5663       0.09      1.008
 22331       HAL2    511   POPC   H17S   5663       0.09      1.008
 22332       CTL3    511   POPC   C218   5664      -0.27     12.011
 22333       HAL3    511   POPC   H18R   5664       0.09      1.008
 22334       HAL3    511   POPC   H18S   5664       0.09      1.008
 22335       HAL3    511   POPC   H18T   5664       0.09      1.008
 22336       CTL2    511   POPC    C33   5665      -0.18     12.011
 22337       HAL2    511   POPC    H3X   5665       0.09      1.008
 22338       HAL2    511   POPC    H3Y   5665       0.09      1.008
 22339       CTL2    511   POPC    C34   5666      -0.18     12.011
 22340       HAL2    511   POPC    H4X   5666       0.09      1.008
 22341       HAL2    511   POPC    H4Y   5666       0.09      1.008
 22342       CTL2    511   POPC    C35   5667      -0.18     12.011
 22343       HAL2    511   POPC    H5X   5667       0.09      1.008
 22344       HAL2    511   POPC    H5Y   5667       0.09      1.008
 22345       CTL2    511   POPC    C36   5668      -0.18     12.011
 22346       HAL2    511   POPC    H6X   5668       0.09      1.008
 22347       HAL2    511   POPC    H6Y   5668       0.09      1.008
 22348       CTL2    511   POPC    C37   5669      -0.18     12.011
 22349       HAL2    511   POPC    H7X   5669       0.09      1.008
 22350       HAL2    511   POPC    H7Y   5669       0.09      1.008
 22351       CTL2    511   POPC    C38   5670      -0.18     12.011
 22352       HAL2    511   POPC    H8X   5670       0.09      1.008
 22353       HAL2    511   POPC    H8Y   5670       0.09      1.008
 22354       CTL2    511   POPC    C39   5671      -0.18     12.011
 22355       HAL2    511   POPC    H9X   5671       0.09      1.008
 22356       HAL2    511   POPC    H9Y   5671       0.09      1.008
 22357       CTL2    511   POPC   C310   5672      -0.18     12.011
 22358       HAL2    511   POPC   H10X   5672       0.09      1.008
 22359       HAL2    511   POPC   H10Y   5672       0.09      1.008
 22360       CTL2    511   POPC   C311   5673      -0.18     12.011
 22361       HAL2    511   POPC   H11X   5673       0.09      1.008
 22362       HAL2    511   POPC   H11Y   5673       0.09      1.008
 22363       CTL2    511   POPC   C312   5674      -0.18     12.011
 22364       HAL2    511   POPC   H12X   5674       0.09      1.008
 22365       HAL2    511   POPC   H12Y   5674       0.09      1.008
 22366       CTL2    511   POPC   C313   5675      -0.18     12.011
 22367       HAL2    511   POPC   H13X   5675       0.09      1.008
 22368       HAL2    511   POPC   H13Y   5675       0.09      1.008
 22369       CTL2    511   POPC   C314   5676      -0.18     12.011
 22370       HAL2    511   POPC   H14X   5676       0.09      1.008
 22371       HAL2    511   POPC   H14Y   5676       0.09      1.008
 22372       CTL2    511   POPC   C315   5677      -0.18     12.011
 22373       HAL2    511   POPC   H15X   5677       0.09      1.008
 22374       HAL2    511   POPC   H15Y   5677       0.09      1.008
 22375       CTL3    511   POPC   C316   5678      -0.27     12.011
 22376       HAL3    511   POPC   H16X   5678       0.09      1.008
 22377       HAL3    511   POPC   H16Y   5678       0.09      1.008
 22378       HAL3    511   POPC   H16Z   5678       0.09      1.008   ; qtot 0
; residue 512 POPC rtp POPC q  0.0
 22379        NTL    512   POPC      N   5679       -0.6     14.007
 22380       CTL2    512   POPC    C12   5679       -0.1     12.011
 22381         HL    512   POPC   H12A   5679       0.25      1.008
 22382         HL    512   POPC   H12B   5679       0.25      1.008
 22383       CTL5    512   POPC    C13   5679      -0.35     12.011
 22384         HL    512   POPC   H13A   5679       0.25      1.008
 22385         HL    512   POPC   H13B   5679       0.25      1.008
 22386         HL    512   POPC   H13C   5679       0.25      1.008
 22387       CTL5    512   POPC    C14   5679      -0.35     12.011
 22388         HL    512   POPC   H14A   5679       0.25      1.008
 22389         HL    512   POPC   H14B   5679       0.25      1.008
 22390         HL    512   POPC   H14C   5679       0.25      1.008
 22391       CTL5    512   POPC    C15   5679      -0.35     12.011
 22392         HL    512   POPC   H15A   5679       0.25      1.008
 22393         HL    512   POPC   H15B   5679       0.25      1.008
 22394         HL    512   POPC   H15C   5679       0.25      1.008
 22395       CTL2    512   POPC    C11   5680      -0.08     12.011
 22396       HAL2    512   POPC   H11A   5680       0.09      1.008
 22397       HAL2    512   POPC   H11B   5680       0.09      1.008
 22398         PL    512   POPC      P   5680        1.5     30.974
 22399        O2L    512   POPC    O13   5680      -0.78    15.9994
 22400        O2L    512   POPC    O14   5680      -0.78    15.9994
 22401       OSLP    512   POPC    O12   5680      -0.57    15.9994
 22402       OSLP    512   POPC    O11   5680      -0.57    15.9994
 22403       CTL2    512   POPC     C1   5680      -0.08     12.011
 22404       HAL2    512   POPC     HA   5680       0.09      1.008
 22405       HAL2    512   POPC     HB   5680       0.09      1.008
 22406       CTL1    512   POPC     C2   5681       0.17     12.011
 22407       HAL1    512   POPC     HS   5681       0.09      1.008
 22408        OSL    512   POPC    O21   5681      -0.49    15.9994
 22409         CL    512   POPC    C21   5681        0.9     12.011
 22410        OBL    512   POPC    O22   5681      -0.63    15.9994
 22411       CTL2    512   POPC    C22   5681      -0.22     12.011
 22412       HAL2    512   POPC    H2R   5681       0.09      1.008
 22413       HAL2    512   POPC    H2S   5681       0.09      1.008
 22414       CTL2    512   POPC     C3   5682       0.08     12.011
 22415       HAL2    512   POPC     HX   5682       0.09      1.008
 22416       HAL2    512   POPC     HY   5682       0.09      1.008
 22417        OSL    512   POPC    O31   5682      -0.49    15.9994
 22418         CL    512   POPC    C31   5682        0.9     12.011
 22419        OBL    512   POPC    O32   5682      -0.63    15.9994
 22420       CTL2    512   POPC    C32   5682      -0.22     12.011
 22421       HAL2    512   POPC    H2X   5682       0.09      1.008
 22422       HAL2    512   POPC    H2Y   5682       0.09      1.008
 22423       CTL2    512   POPC    C23   5683      -0.18     12.011
 22424       HAL2    512   POPC    H3R   5683       0.09      1.008
 22425       HAL2    512   POPC    H3S   5683       0.09      1.008
 22426       CTL2    512   POPC    C24   5684      -0.18     12.011
 22427       HAL2    512   POPC    H4R   5684       0.09      1.008
 22428       HAL2    512   POPC    H4S   5684       0.09      1.008
 22429       CTL2    512   POPC    C25   5685      -0.18     12.011
 22430       HAL2    512   POPC    H5R   5685       0.09      1.008
 22431       HAL2    512   POPC    H5S   5685       0.09      1.008
 22432       CTL2    512   POPC    C26   5686      -0.18     12.011
 22433       HAL2    512   POPC    H6R   5686       0.09      1.008
 22434       HAL2    512   POPC    H6S   5686       0.09      1.008
 22435       CTL2    512   POPC    C27   5687      -0.18     12.011
 22436       HAL2    512   POPC    H7R   5687       0.09      1.008
 22437       HAL2    512   POPC    H7S   5687       0.09      1.008
 22438       CTL2    512   POPC    C28   5688      -0.18     12.011
 22439       HAL2    512   POPC    H8R   5688       0.09      1.008
 22440       HAL2    512   POPC    H8S   5688       0.09      1.008
 22441       CEL1    512   POPC    C29   5689      -0.15     12.011
 22442       HEL1    512   POPC    H91   5689       0.15      1.008
 22443       CEL1    512   POPC   C210   5690      -0.15     12.011
 22444       HEL1    512   POPC   H101   5690       0.15      1.008
 22445       CTL2    512   POPC   C211   5691      -0.18     12.011
 22446       HAL2    512   POPC   H11R   5691       0.09      1.008
 22447       HAL2    512   POPC   H11S   5691       0.09      1.008
 22448       CTL2    512   POPC   C212   5692      -0.18     12.011
 22449       HAL2    512   POPC   H12R   5692       0.09      1.008
 22450       HAL2    512   POPC   H12S   5692       0.09      1.008
 22451       CTL2    512   POPC   C213   5693      -0.18     12.011
 22452       HAL2    512   POPC   H13R   5693       0.09      1.008
 22453       HAL2    512   POPC   H13S   5693       0.09      1.008
 22454       CTL2    512   POPC   C214   5694      -0.18     12.011
 22455       HAL2    512   POPC   H14R   5694       0.09      1.008
 22456       HAL2    512   POPC   H14S   5694       0.09      1.008
 22457       CTL2    512   POPC   C215   5695      -0.18     12.011
 22458       HAL2    512   POPC   H15R   5695       0.09      1.008
 22459       HAL2    512   POPC   H15S   5695       0.09      1.008
 22460       CTL2    512   POPC   C216   5696      -0.18     12.011
 22461       HAL2    512   POPC   H16R   5696       0.09      1.008
 22462       HAL2    512   POPC   H16S   5696       0.09      1.008
 22463       CTL2    512   POPC   C217   5697      -0.18     12.011
 22464       HAL2    512   POPC   H17R   5697       0.09      1.008
 22465       HAL2    512   POPC   H17S   5697       0.09      1.008
 22466       CTL3    512   POPC   C218   5698      -0.27     12.011
 22467       HAL3    512   POPC   H18R   5698       0.09      1.008
 22468       HAL3    512   POPC   H18S   5698       0.09      1.008
 22469       HAL3    512   POPC   H18T   5698       0.09      1.008
 22470       CTL2    512   POPC    C33   5699      -0.18     12.011
 22471       HAL2    512   POPC    H3X   5699       0.09      1.008
 22472       HAL2    512   POPC    H3Y   5699       0.09      1.008
 22473       CTL2    512   POPC    C34   5700      -0.18     12.011
 22474       HAL2    512   POPC    H4X   5700       0.09      1.008
 22475       HAL2    512   POPC    H4Y   5700       0.09      1.008
 22476       CTL2    512   POPC    C35   5701      -0.18     12.011
 22477       HAL2    512   POPC    H5X   5701       0.09      1.008
 22478       HAL2    512   POPC    H5Y   5701       0.09      1.008
 22479       CTL2    512   POPC    C36   5702      -0.18     12.011
 22480       HAL2    512   POPC    H6X   5702       0.09      1.008
 22481       HAL2    512   POPC    H6Y   5702       0.09      1.008
 22482       CTL2    512   POPC    C37   5703      -0.18     12.011
 22483       HAL2    512   POPC    H7X   5703       0.09      1.008
 22484       HAL2    512   POPC    H7Y   5703       0.09      1.008
 22485       CTL2    512   POPC    C38   5704      -0.18     12.011
 22486       HAL2    512   POPC    H8X   5704       0.09      1.008
 22487       HAL2    512   POPC    H8Y   5704       0.09      1.008
 22488       CTL2    512   POPC    C39   5705      -0.18     12.011
 22489       HAL2    512   POPC    H9X   5705       0.09      1.008
 22490       HAL2    512   POPC    H9Y   5705       0.09      1.008
 22491       CTL2    512   POPC   C310   5706      -0.18     12.011
 22492       HAL2    512   POPC   H10X   5706       0.09      1.008
 22493       HAL2    512   POPC   H10Y   5706       0.09      1.008
 22494       CTL2    512   POPC   C311   5707      -0.18     12.011
 22495       HAL2    512   POPC   H11X   5707       0.09      1.008
 22496       HAL2    512   POPC   H11Y   5707       0.09      1.008
 22497       CTL2    512   POPC   C312   5708      -0.18     12.011
 22498       HAL2    512   POPC   H12X   5708       0.09      1.008
 22499       HAL2    512   POPC   H12Y   5708       0.09      1.008
 22500       CTL2    512   POPC   C313   5709      -0.18     12.011
 22501       HAL2    512   POPC   H13X   5709       0.09      1.008
 22502       HAL2    512   POPC   H13Y   5709       0.09      1.008
 22503       CTL2    512   POPC   C314   5710      -0.18     12.011
 22504       HAL2    512   POPC   H14X   5710       0.09      1.008
 22505       HAL2    512   POPC   H14Y   5710       0.09      1.008
 22506       CTL2    512   POPC   C315   5711      -0.18     12.011
 22507       HAL2    512   POPC   H15X   5711       0.09      1.008
 22508       HAL2    512   POPC   H15Y   5711       0.09      1.008
 22509       CTL3    512   POPC   C316   5712      -0.27     12.011
 22510       HAL3    512   POPC   H16X   5712       0.09      1.008
 22511       HAL3    512   POPC   H16Y   5712       0.09      1.008
 22512       HAL3    512   POPC   H16Z   5712       0.09      1.008   ; qtot 0
; residue 513 POPC rtp POPC q  0.0
 22513        NTL    513   POPC      N   5713       -0.6     14.007
 22514       CTL2    513   POPC    C12   5713       -0.1     12.011
 22515         HL    513   POPC   H12A   5713       0.25      1.008
 22516         HL    513   POPC   H12B   5713       0.25      1.008
 22517       CTL5    513   POPC    C13   5713      -0.35     12.011
 22518         HL    513   POPC   H13A   5713       0.25      1.008
 22519         HL    513   POPC   H13B   5713       0.25      1.008
 22520         HL    513   POPC   H13C   5713       0.25      1.008
 22521       CTL5    513   POPC    C14   5713      -0.35     12.011
 22522         HL    513   POPC   H14A   5713       0.25      1.008
 22523         HL    513   POPC   H14B   5713       0.25      1.008
 22524         HL    513   POPC   H14C   5713       0.25      1.008
 22525       CTL5    513   POPC    C15   5713      -0.35     12.011
 22526         HL    513   POPC   H15A   5713       0.25      1.008
 22527         HL    513   POPC   H15B   5713       0.25      1.008
 22528         HL    513   POPC   H15C   5713       0.25      1.008
 22529       CTL2    513   POPC    C11   5714      -0.08     12.011
 22530       HAL2    513   POPC   H11A   5714       0.09      1.008
 22531       HAL2    513   POPC   H11B   5714       0.09      1.008
 22532         PL    513   POPC      P   5714        1.5     30.974
 22533        O2L    513   POPC    O13   5714      -0.78    15.9994
 22534        O2L    513   POPC    O14   5714      -0.78    15.9994
 22535       OSLP    513   POPC    O12   5714      -0.57    15.9994
 22536       OSLP    513   POPC    O11   5714      -0.57    15.9994
 22537       CTL2    513   POPC     C1   5714      -0.08     12.011
 22538       HAL2    513   POPC     HA   5714       0.09      1.008
 22539       HAL2    513   POPC     HB   5714       0.09      1.008
 22540       CTL1    513   POPC     C2   5715       0.17     12.011
 22541       HAL1    513   POPC     HS   5715       0.09      1.008
 22542        OSL    513   POPC    O21   5715      -0.49    15.9994
 22543         CL    513   POPC    C21   5715        0.9     12.011
 22544        OBL    513   POPC    O22   5715      -0.63    15.9994
 22545       CTL2    513   POPC    C22   5715      -0.22     12.011
 22546       HAL2    513   POPC    H2R   5715       0.09      1.008
 22547       HAL2    513   POPC    H2S   5715       0.09      1.008
 22548       CTL2    513   POPC     C3   5716       0.08     12.011
 22549       HAL2    513   POPC     HX   5716       0.09      1.008
 22550       HAL2    513   POPC     HY   5716       0.09      1.008
 22551        OSL    513   POPC    O31   5716      -0.49    15.9994
 22552         CL    513   POPC    C31   5716        0.9     12.011
 22553        OBL    513   POPC    O32   5716      -0.63    15.9994
 22554       CTL2    513   POPC    C32   5716      -0.22     12.011
 22555       HAL2    513   POPC    H2X   5716       0.09      1.008
 22556       HAL2    513   POPC    H2Y   5716       0.09      1.008
 22557       CTL2    513   POPC    C23   5717      -0.18     12.011
 22558       HAL2    513   POPC    H3R   5717       0.09      1.008
 22559       HAL2    513   POPC    H3S   5717       0.09      1.008
 22560       CTL2    513   POPC    C24   5718      -0.18     12.011
 22561       HAL2    513   POPC    H4R   5718       0.09      1.008
 22562       HAL2    513   POPC    H4S   5718       0.09      1.008
 22563       CTL2    513   POPC    C25   5719      -0.18     12.011
 22564       HAL2    513   POPC    H5R   5719       0.09      1.008
 22565       HAL2    513   POPC    H5S   5719       0.09      1.008
 22566       CTL2    513   POPC    C26   5720      -0.18     12.011
 22567       HAL2    513   POPC    H6R   5720       0.09      1.008
 22568       HAL2    513   POPC    H6S   5720       0.09      1.008
 22569       CTL2    513   POPC    C27   5721      -0.18     12.011
 22570       HAL2    513   POPC    H7R   5721       0.09      1.008
 22571       HAL2    513   POPC    H7S   5721       0.09      1.008
 22572       CTL2    513   POPC    C28   5722      -0.18     12.011
 22573       HAL2    513   POPC    H8R   5722       0.09      1.008
 22574       HAL2    513   POPC    H8S   5722       0.09      1.008
 22575       CEL1    513   POPC    C29   5723      -0.15     12.011
 22576       HEL1    513   POPC    H91   5723       0.15      1.008
 22577       CEL1    513   POPC   C210   5724      -0.15     12.011
 22578       HEL1    513   POPC   H101   5724       0.15      1.008
 22579       CTL2    513   POPC   C211   5725      -0.18     12.011
 22580       HAL2    513   POPC   H11R   5725       0.09      1.008
 22581       HAL2    513   POPC   H11S   5725       0.09      1.008
 22582       CTL2    513   POPC   C212   5726      -0.18     12.011
 22583       HAL2    513   POPC   H12R   5726       0.09      1.008
 22584       HAL2    513   POPC   H12S   5726       0.09      1.008
 22585       CTL2    513   POPC   C213   5727      -0.18     12.011
 22586       HAL2    513   POPC   H13R   5727       0.09      1.008
 22587       HAL2    513   POPC   H13S   5727       0.09      1.008
 22588       CTL2    513   POPC   C214   5728      -0.18     12.011
 22589       HAL2    513   POPC   H14R   5728       0.09      1.008
 22590       HAL2    513   POPC   H14S   5728       0.09      1.008
 22591       CTL2    513   POPC   C215   5729      -0.18     12.011
 22592       HAL2    513   POPC   H15R   5729       0.09      1.008
 22593       HAL2    513   POPC   H15S   5729       0.09      1.008
 22594       CTL2    513   POPC   C216   5730      -0.18     12.011
 22595       HAL2    513   POPC   H16R   5730       0.09      1.008
 22596       HAL2    513   POPC   H16S   5730       0.09      1.008
 22597       CTL2    513   POPC   C217   5731      -0.18     12.011
 22598       HAL2    513   POPC   H17R   5731       0.09      1.008
 22599       HAL2    513   POPC   H17S   5731       0.09      1.008
 22600       CTL3    513   POPC   C218   5732      -0.27     12.011
 22601       HAL3    513   POPC   H18R   5732       0.09      1.008
 22602       HAL3    513   POPC   H18S   5732       0.09      1.008
 22603       HAL3    513   POPC   H18T   5732       0.09      1.008
 22604       CTL2    513   POPC    C33   5733      -0.18     12.011
 22605       HAL2    513   POPC    H3X   5733       0.09      1.008
 22606       HAL2    513   POPC    H3Y   5733       0.09      1.008
 22607       CTL2    513   POPC    C34   5734      -0.18     12.011
 22608       HAL2    513   POPC    H4X   5734       0.09      1.008
 22609       HAL2    513   POPC    H4Y   5734       0.09      1.008
 22610       CTL2    513   POPC    C35   5735      -0.18     12.011
 22611       HAL2    513   POPC    H5X   5735       0.09      1.008
 22612       HAL2    513   POPC    H5Y   5735       0.09      1.008
 22613       CTL2    513   POPC    C36   5736      -0.18     12.011
 22614       HAL2    513   POPC    H6X   5736       0.09      1.008
 22615       HAL2    513   POPC    H6Y   5736       0.09      1.008
 22616       CTL2    513   POPC    C37   5737      -0.18     12.011
 22617       HAL2    513   POPC    H7X   5737       0.09      1.008
 22618       HAL2    513   POPC    H7Y   5737       0.09      1.008
 22619       CTL2    513   POPC    C38   5738      -0.18     12.011
 22620       HAL2    513   POPC    H8X   5738       0.09      1.008
 22621       HAL2    513   POPC    H8Y   5738       0.09      1.008
 22622       CTL2    513   POPC    C39   5739      -0.18     12.011
 22623       HAL2    513   POPC    H9X   5739       0.09      1.008
 22624       HAL2    513   POPC    H9Y   5739       0.09      1.008
 22625       CTL2    513   POPC   C310   5740      -0.18     12.011
 22626       HAL2    513   POPC   H10X   5740       0.09      1.008
 22627       HAL2    513   POPC   H10Y   5740       0.09      1.008
 22628       CTL2    513   POPC   C311   5741      -0.18     12.011
 22629       HAL2    513   POPC   H11X   5741       0.09      1.008
 22630       HAL2    513   POPC   H11Y   5741       0.09      1.008
 22631       CTL2    513   POPC   C312   5742      -0.18     12.011
 22632       HAL2    513   POPC   H12X   5742       0.09      1.008
 22633       HAL2    513   POPC   H12Y   5742       0.09      1.008
 22634       CTL2    513   POPC   C313   5743      -0.18     12.011
 22635       HAL2    513   POPC   H13X   5743       0.09      1.008
 22636       HAL2    513   POPC   H13Y   5743       0.09      1.008
 22637       CTL2    513   POPC   C314   5744      -0.18     12.011
 22638       HAL2    513   POPC   H14X   5744       0.09      1.008
 22639       HAL2    513   POPC   H14Y   5744       0.09      1.008
 22640       CTL2    513   POPC   C315   5745      -0.18     12.011
 22641       HAL2    513   POPC   H15X   5745       0.09      1.008
 22642       HAL2    513   POPC   H15Y   5745       0.09      1.008
 22643       CTL3    513   POPC   C316   5746      -0.27     12.011
 22644       HAL3    513   POPC   H16X   5746       0.09      1.008
 22645       HAL3    513   POPC   H16Y   5746       0.09      1.008
 22646       HAL3    513   POPC   H16Z   5746       0.09      1.008   ; qtot 0

[ bonds ]
;  ai    aj funct            c0            c1            c2            c3
    1     2     1 
    1     5     1 
    1     9     1 
    1    13     1 
    2     3     1 
    2     4     1 
    2    17     1 
    5     6     1 
    5     7     1 
    5     8     1 
    9    10     1 
    9    11     1 
    9    12     1 
   13    14     1 
   13    15     1 
   13    16     1 
   17    18     1 
   17    19     1 
   17    23     1 
   20    21     1 
   20    22     1 
   20    23     1 
   20    24     1 
   24    25     1 
   25    26     1 
   25    27     1 
   25    28     1 
   28    29     1 
   28    30     1 
   28    36     1 
   30    31     1 
   31    32     1 
   31    33     1 
   33    34     1 
   33    35     1 
   33    45     1 
   36    37     1 
   36    38     1 
   36    39     1 
   39    40     1 
   40    41     1 
   40    42     1 
   42    43     1 
   42    44     1 
   42    92     1 
   45    46     1 
   45    47     1 
   45    48     1 
   48    49     1 
   48    50     1 
   48    51     1 
   51    52     1 
   51    53     1 
   51    54     1 
   54    55     1 
   54    56     1 
   54    57     1 
   57    58     1 
   57    59     1 
   57    60     1 
   60    61     1 
   60    62     1 
   60    63     1 
   63    64     1 
   63    65     1 
   65    66     1 
   65    67     1 
   67    68     1 
   67    69     1 
   67    70     1 
   70    71     1 
   70    72     1 
   70    73     1 
   73    74     1 
   73    75     1 
   73    76     1 
   76    77     1 
   76    78     1 
   76    79     1 
   79    80     1 
   79    81     1 
   79    82     1 
   82    83     1 
   82    84     1 
   82    85     1 
   85    86     1 
   85    87     1 
   85    88     1 
   88    89     1 
   88    90     1 
   88    91     1 
   92    93     1 
   92    94     1 
   92    95     1 
   95    96     1 
   95    97     1 
   95    98     1 
   98    99     1 
   98   100     1 
   98   101     1 
  101   102     1 
  101   103     1 
  101   104     1 
  104   105     1 
  104   106     1 
  104   107     1 
  107   108     1 
  107   109     1 
  107   110     1 
  110   111     1 
  110   112     1 
  110   113     1 
  113   114     1 
  113   115     1 
  113   116     1 
  116   117     1 
  116   118     1 
  116   119     1 
  119   120     1 
  119   121     1 
  119   122     1 
  122   123     1 
  122   124     1 
  122   125     1 
  125   126     1 
  125   127     1 
  125   128     1 
  128   129     1 
  128   130     1 
  128   131     1 
  131   132     1 
  131   133     1 
  131   134     1 
  135   136     1 
  135   139     1 
  135   143     1 
  135   147     1 
  136   137     1 
  136   138     1 
  136   151     1 
  139   140     1 
  139   141     1 
  139   142     1 
  143   144     1 
  143   145     1 
  143   146     1 
  147   148     1 
  147   149     1 
  147   150     1 
  151   152     1 
  151   153     1 
  151   157     1 
  154   155     1 
  154   156     1 
  154   157     1 
  154   158     1 
  158   159     1 
  159   160     1 
  159   161     1 
  159   162     1 
  162   163     1 
  162   164     1 
  162   170     1 
  164   165     1 
  165   166     1 
  165   167     1 
  167   168     1 
  167   169     1 
  167   179     1 
  170   171     1 
  170   172     1 
  170   173     1 
  173   174     1 
  174   175     1 
  174   176     1 
  176   177     1 
  176   178     1 
  176   226     1 
  179   180     1 
  179   181     1 
  179   182     1 
  182   183     1 
  182   184     1 
  182   185     1 
  185   186     1 
  185   187     1 
  185   188     1 
  188   189     1 
  188   190     1 
  188   191     1 
  191   192     1 
  191   193     1 
  191   194     1 
  194   195     1 
  194   196     1 
  194   197     1 
  197   198     1 
  197   199     1 
  199   200     1 
  199   201     1 
  201   202     1 
  201   203     1 
  201   204     1 
  204   205     1 
  204   206     1 
  204   207     1 
  207   208     1 
  207   209     1 
  207   210     1 
  210   211     1 
  210   212     1 
  210   213     1 
  213   214     1 
  213   215     1 
  213   216     1 
  216   217     1 
  216   218     1 
  216   219     1 
  219   220     1 
  219   221     1 
  219   222     1 
  222   223     1 
  222   224     1 
  222   225     1 
  226   227     1 
  226   228     1 
  226   229     1 
  229   230     1 
  229   231     1 
  229   232     1 
  232   233     1 
  232   234     1 
  232   235     1 
  235   236     1 
  235   237     1 
  235   238     1 
  238   239     1 
  238   240     1 
  238   241     1 
  241   242     1 
  241   243     1 
  241   244     1 
  244   245     1 
  244   246     1 
  244   247     1 
  247   248     1 
  247   249     1 
  247   250     1 
  250   251     1 
  250   252     1 
  250   253     1 
  253   254     1 
  253   255     1 
  253   256     1 
  256   257     1 
  256   258     1 
  256   259     1 
  259   260     1 
  259   261     1 
  259   262     1 
  262   263     1 
  262   264     1 
  262   265     1 
  265   266     1 
  265   267     1 
  265   268     1 
  269   270     1 
  269   273     1 
  269   277     1 
  269   281     1 
  270   271     1 
  270   272     1 
  270   285     1 
  273   274     1 
  273   275     1 
  273   276     1 
  277   278     1 
  277   279     1 
  277   280     1 
  281   282     1 
  281   283     1 
  281   284     1 
  285   286     1 
  285   287     1 
  285   291     1 
  288   289     1 
  288   290     1 
  288   291     1 
  288   292     1 
  292   293     1 
  293   294     1 
  293   295     1 
  293   296     1 
  296   297     1 
  296   298     1 
  296   304     1 
  298   299     1 
  299   300     1 
  299   301     1 
  301   302     1 
  301   303     1 
  301   313     1 
  304   305     1 
  304   306     1 
  304   307     1 
  307   308     1 
  308   309     1 
  308   310     1 
  310   311     1 
  310   312     1 
  310   360     1 
  313   314     1 
  313   315     1 
  313   316     1 
  316   317     1 
  316   318     1 
  316   319     1 
  319   320     1 
  319   321     1 
  319   322     1 
  322   323     1 
  322   324     1 
  322   325     1 
  325   326     1 
  325   327     1 
  325   328     1 
  328   329     1 
  328   330     1 
  328   331     1 
  331   332     1 
  331   333     1 
  333   334     1 
  333   335     1 
  335   336     1 
  335   337     1 
  335   338     1 
  338   339     1 
  338   340     1 
  338   341     1 
  341   342     1 
  341   343     1 
  341   344     1 
  344   345     1 
  344   346     1 
  344   347     1 
  347   348     1 
  347   349     1 
  347   350     1 
  350   351     1 
  350   352     1 
  350   353     1 
  353   354     1 
  353   355     1 
  353   356     1 
  356   357     1 
  356   358     1 
  356   359     1 
  360   361     1 
  360   362     1 
  360   363     1 
  363   364     1 
  363   365     1 
  363   366     1 
  366   367     1 
  366   368     1 
  366   369     1 
  369   370     1 
  369   371     1 
  369   372     1 
  372   373     1 
  372   374     1 
  372   375     1 
  375   376     1 
  375   377     1 
  375   378     1 
  378   379     1 
  378   380     1 
  378   381     1 
  381   382     1 
  381   383     1 
  381   384     1 
  384   385     1 
  384   386     1 
  384   387     1 
  387   388     1 
  387   389     1 
  387   390     1 
  390   391     1 
  390   392     1 
  390   393     1 
  393   394     1 
  393   395     1 
  393   396     1 
  396   397     1 
  396   398     1 
  396   399     1 
  399   400     1 
  399   401     1 
  399   402     1 
  403   404     1 
  403   407     1 
  403   411     1 
  403   415     1 
  404   405     1 
  404   406     1 
  404   419     1 
  407   408     1 
  407   409     1 
  407   410     1 
  411   412     1 
  411   413     1 
  411   414     1 
  415   416     1 
  415   417     1 
  415   418     1 
  419   420     1 
  419   421     1 
  419   425     1 
  422   423     1 
  422   424     1 
  422   425     1 
  422   426     1 
  426   427     1 
  427   428     1 
  427   429     1 
  427   430     1 
  430   431     1 
  430   432     1 
  430   438     1 
  432   433     1 
  433   434     1 
  433   435     1 
  435   436     1 
  435   437     1 
  435   447     1 
  438   439     1 
  438   440     1 
  438   441     1 
  441   442     1 
  442   443     1 
  442   444     1 
  444   445     1 
  444   446     1 
  444   494     1 
  447   448     1 
  447   449     1 
  447   450     1 
  450   451     1 
  450   452     1 
  450   453     1 
  453   454     1 
  453   455     1 
  453   456     1 
  456   457     1 
  456   458     1 
  456   459     1 
  459   460     1 
  459   461     1 
  459   462     1 
  462   463     1 
  462   464     1 
  462   465     1 
  465   466     1 
  465   467     1 
  467   468     1 
  467   469     1 
  469   470     1 
  469   471     1 
  469   472     1 
  472   473     1 
  472   474     1 
  472   475     1 
  475   476     1 
  475   477     1 
  475   478     1 
  478   479     1 
  478   480     1 
  478   481     1 
  481   482     1 
  481   483     1 
  481   484     1 
  484   485     1 
  484   486     1 
  484   487     1 
  487   488     1 
  487   489     1 
  487   490     1 
  490   491     1 
  490   492     1 
  490   493     1 
  494   495     1 
  494   496     1 
  494   497     1 
  497   498     1 
  497   499     1 
  497   500     1 
  500   501     1 
  500   502     1 
  500   503     1 
  503   504     1 
  503   505     1 
  503   506     1 
  506   507     1 
  506   508     1 
  506   509     1 
  509   510     1 
  509   511     1 
  509   512     1 
  512   513     1 
  512   514     1 
  512   515     1 
  515   516     1 
  515   517     1 
  515   518     1 
  518   519     1 
  518   520     1 
  518   521     1 
  521   522     1 
  521   523     1 
  521   524     1 
  524   525     1 
  524   526     1 
  524   527     1 
  527   528     1 
  527   529     1 
  527   530     1 
  530   531     1 
  530   532     1 
  530   533     1 
  533   534     1 
  533   535     1 
  533   536     1 
  537   538     1 
  537   541     1 
  537   545     1 
  537   549     1 
  538   539     1 
  538   540     1 
  538   553     1 
  541   542     1 
  541   543     1 
  541   544     1 
  545   546     1 
  545   547     1 
  545   548     1 
  549   550     1 
  549   551     1 
  549   552     1 
  553   554     1 
  553   555     1 
  553   559     1 
  556   557     1 
  556   558     1 
  556   559     1 
  556   560     1 
  560   561     1 
  561   562     1 
  561   563     1 
  561   564     1 
  564   565     1 
  564   566     1 
  564   572     1 
  566   567     1 
  567   568     1 
  567   569     1 
  569   570     1 
  569   571     1 
  569   581     1 
  572   573     1 
  572   574     1 
  572   575     1 
  575   576     1 
  576   577     1 
  576   578     1 
  578   579     1 
  578   580     1 
  578   628     1 
  581   582     1 
  581   583     1 
  581   584     1 
  584   585     1 
  584   586     1 
  584   587     1 
  587   588     1 
  587   589     1 
  587   590     1 
  590   591     1 
  590   592     1 
  590   593     1 
  593   594     1 
  593   595     1 
  593   596     1 
  596   597     1 
  596   598     1 
  596   599     1 
  599   600     1 
  599   601     1 
  601   602     1 
  601   603     1 
  603   604     1 
  603   605     1 
  603   606     1 
  606   607     1 
  606   608     1 
  606   609     1 
  609   610     1 
  609   611     1 
  609   612     1 
  612   613     1 
  612   614     1 
  612   615     1 
  615   616     1 
  615   617     1 
  615   618     1 
  618   619     1 
  618   620     1 
  618   621     1 
  621   622     1 
  621   623     1 
  621   624     1 
  624   625     1 
  624   626     1 
  624   627     1 
  628   629     1 
  628   630     1 
  628   631     1 
  631   632     1 
  631   633     1 
  631   634     1 
  634   635     1 
  634   636     1 
  634   637     1 
  637   638     1 
  637   639     1 
  637   640     1 
  640   641     1 
  640   642     1 
  640   643     1 
  643   644     1 
  643   645     1 
  643   646     1 
  646   647     1 
  646   648     1 
  646   649     1 
  649   650     1 
  649   651     1 
  649   652     1 
  652   653     1 
  652   654     1 
  652   655     1 
  655   656     1 
  655   657     1 
  655   658     1 
  658   659     1 
  658   660     1 
  658   661     1 
  661   662     1 
  661   663     1 
  661   664     1 
  664   665     1 
  664   666     1 
  664   667     1 
  667   668     1 
  667   669     1 
  667   670     1 
  671   672     1 
  671   675     1 
  671   679     1 
  671   683     1 
  672   673     1 
  672   674     1 
  672   687     1 
  675   676     1 
  675   677     1 
  675   678     1 
  679   680     1 
  679   681     1 
  679   682     1 
  683   684     1 
  683   685     1 
  683   686     1 
  687   688     1 
  687   689     1 
  687   693     1 
  690   691     1 
  690   692     1 
  690   693     1 
  690   694     1 
  694   695     1 
  695   696     1 
  695   697     1 
  695   698     1 
  698   699     1 
  698   700     1 
  698   706     1 
  700   701     1 
  701   702     1 
  701   703     1 
  703   704     1 
  703   705     1 
  703   715     1 
  706   707     1 
  706   708     1 
  706   709     1 
  709   710     1 
  710   711     1 
  710   712     1 
  712   713     1 
  712   714     1 
  712   762     1 
  715   716     1 
  715   717     1 
  715   718     1 
  718   719     1 
  718   720     1 
  718   721     1 
  721   722     1 
  721   723     1 
  721   724     1 
  724   725     1 
  724   726     1 
  724   727     1 
  727   728     1 
  727   729     1 
  727   730     1 
  730   731     1 
  730   732     1 
  730   733     1 
  733   734     1 
  733   735     1 
  735   736     1 
  735   737     1 
  737   738     1 
  737   739     1 
  737   740     1 
  740   741     1 
  740   742     1 
  740   743     1 
  743   744     1 
  743   745     1 
  743   746     1 
  746   747     1 
  746   748     1 
  746   749     1 
  749   750     1 
  749   751     1 
  749   752     1 
  752   753     1 
  752   754     1 
  752   755     1 
  755   756     1 
  755   757     1 
  755   758     1 
  758   759     1 
  758   760     1 
  758   761     1 
  762   763     1 
  762   764     1 
  762   765     1 
  765   766     1 
  765   767     1 
  765   768     1 
  768   769     1 
  768   770     1 
  768   771     1 
  771   772     1 
  771   773     1 
  771   774     1 
  774   775     1 
  774   776     1 
  774   777     1 
  777   778     1 
  777   779     1 
  777   780     1 
  780   781     1 
  780   782     1 
  780   783     1 
  783   784     1 
  783   785     1 
  783   786     1 
  786   787     1 
  786   788     1 
  786   789     1 
  789   790     1 
  789   791     1 
  789   792     1 
  792   793     1 
  792   794     1 
  792   795     1 
  795   796     1 
  795   797     1 
  795   798     1 
  798   799     1 
  798   800     1 
  798   801     1 
  801   802     1 
  801   803     1 
  801   804     1 
  805   806     1 
  805   809     1 
  805   813     1 
  805   817     1 
  806   807     1 
  806   808     1 
  806   821     1 
  809   810     1 
  809   811     1 
  809   812     1 
  813   814     1 
  813   815     1 
  813   816     1 
  817   818     1 
  817   819     1 
  817   820     1 
  821   822     1 
  821   823     1 
  821   827     1 
  824   825     1 
  824   826     1 
  824   827     1 
  824   828     1 
  828   829     1 
  829   830     1 
  829   831     1 
  829   832     1 
  832   833     1 
  832   834     1 
  832   840     1 
  834   835     1 
  835   836     1 
  835   837     1 
  837   838     1 
  837   839     1 
  837   849     1 
  840   841     1 
  840   842     1 
  840   843     1 
  843   844     1 
  844   845     1 
  844   846     1 
  846   847     1 
  846   848     1 
  846   896     1 
  849   850     1 
  849   851     1 
  849   852     1 
  852   853     1 
  852   854     1 
  852   855     1 
  855   856     1 
  855   857     1 
  855   858     1 
  858   859     1 
  858   860     1 
  858   861     1 
  861   862     1 
  861   863     1 
  861   864     1 
  864   865     1 
  864   866     1 
  864   867     1 
  867   868     1 
  867   869     1 
  869   870     1 
  869   871     1 
  871   872     1 
  871   873     1 
  871   874     1 
  874   875     1 
  874   876     1 
  874   877     1 
  877   878     1 
  877   879     1 
  877   880     1 
  880   881     1 
  880   882     1 
  880   883     1 
  883   884     1 
  883   885     1 
  883   886     1 
  886   887     1 
  886   888     1 
  886   889     1 
  889   890     1 
  889   891     1 
  889   892     1 
  892   893     1 
  892   894     1 
  892   895     1 
  896   897     1 
  896   898     1 
  896   899     1 
  899   900     1 
  899   901     1 
  899   902     1 
  902   903     1 
  902   904     1 
  902   905     1 
  905   906     1 
  905   907     1 
  905   908     1 
  908   909     1 
  908   910     1 
  908   911     1 
  911   912     1 
  911   913     1 
  911   914     1 
  914   915     1 
  914   916     1 
  914   917     1 
  917   918     1 
  917   919     1 
  917   920     1 
  920   921     1 
  920   922     1 
  920   923     1 
  923   924     1 
  923   925     1 
  923   926     1 
  926   927     1 
  926   928     1 
  926   929     1 
  929   930     1 
  929   931     1 
  929   932     1 
  932   933     1 
  932   934     1 
  932   935     1 
  935   936     1 
  935   937     1 
  935   938     1 
  939   940     1 
  939   943     1 
  939   947     1 
  939   951     1 
  940   941     1 
  940   942     1 
  940   955     1 
  943   944     1 
  943   945     1 
  943   946     1 
  947   948     1 
  947   949     1 
  947   950     1 
  951   952     1 
  951   953     1 
  951   954     1 
  955   956     1 
  955   957     1 
  955   961     1 
  958   959     1 
  958   960     1 
  958   961     1 
  958   962     1 
  962   963     1 
  963   964     1 
  963   965     1 
  963   966     1 
  966   967     1 
  966   968     1 
  966   974     1 
  968   969     1 
  969   970     1 
  969   971     1 
  971   972     1 
  971   973     1 
  971   983     1 
  974   975     1 
  974   976     1 
  974   977     1 
  977   978     1 
  978   979     1 
  978   980     1 
  980   981     1 
  980   982     1 
  980  1030     1 
  983   984     1 
  983   985     1 
  983   986     1 
  986   987     1 
  986   988     1 
  986   989     1 
  989   990     1 
  989   991     1 
  989   992     1 
  992   993     1 
  992   994     1 
  992   995     1 
  995   996     1 
  995   997     1 
  995   998     1 
  998   999     1 
  998  1000     1 
  998  1001     1 
 1001  1002     1 
 1001  1003     1 
 1003  1004     1 
 1003  1005     1 
 1005  1006     1 
 1005  1007     1 
 1005  1008     1 
 1008  1009     1 
 1008  1010     1 
 1008  1011     1 
 1011  1012     1 
 1011  1013     1 
 1011  1014     1 
 1014  1015     1 
 1014  1016     1 
 1014  1017     1 
 1017  1018     1 
 1017  1019     1 
 1017  1020     1 
 1020  1021     1 
 1020  1022     1 
 1020  1023     1 
 1023  1024     1 
 1023  1025     1 
 1023  1026     1 
 1026  1027     1 
 1026  1028     1 
 1026  1029     1 
 1030  1031     1 
 1030  1032     1 
 1030  1033     1 
 1033  1034     1 
 1033  1035     1 
 1033  1036     1 
 1036  1037     1 
 1036  1038     1 
 1036  1039     1 
 1039  1040     1 
 1039  1041     1 
 1039  1042     1 
 1042  1043     1 
 1042  1044     1 
 1042  1045     1 
 1045  1046     1 
 1045  1047     1 
 1045  1048     1 
 1048  1049     1 
 1048  1050     1 
 1048  1051     1 
 1051  1052     1 
 1051  1053     1 
 1051  1054     1 
 1054  1055     1 
 1054  1056     1 
 1054  1057     1 
 1057  1058     1 
 1057  1059     1 
 1057  1060     1 
 1060  1061     1 
 1060  1062     1 
 1060  1063     1 
 1063  1064     1 
 1063  1065     1 
 1063  1066     1 
 1066  1067     1 
 1066  1068     1 
 1066  1069     1 
 1069  1070     1 
 1069  1071     1 
 1069  1072     1 
 1073  1074     1 
 1073  1077     1 
 1073  1081     1 
 1073  1085     1 
 1074  1075     1 
 1074  1076     1 
 1074  1089     1 
 1077  1078     1 
 1077  1079     1 
 1077  1080     1 
 1081  1082     1 
 1081  1083     1 
 1081  1084     1 
 1085  1086     1 
 1085  1087     1 
 1085  1088     1 
 1089  1090     1 
 1089  1091     1 
 1089  1095     1 
 1092  1093     1 
 1092  1094     1 
 1092  1095     1 
 1092  1096     1 
 1096  1097     1 
 1097  1098     1 
 1097  1099     1 
 1097  1100     1 
 1100  1101     1 
 1100  1102     1 
 1100  1108     1 
 1102  1103     1 
 1103  1104     1 
 1103  1105     1 
 1105  1106     1 
 1105  1107     1 
 1105  1117     1 
 1108  1109     1 
 1108  1110     1 
 1108  1111     1 
 1111  1112     1 
 1112  1113     1 
 1112  1114     1 
 1114  1115     1 
 1114  1116     1 
 1114  1164     1 
 1117  1118     1 
 1117  1119     1 
 1117  1120     1 
 1120  1121     1 
 1120  1122     1 
 1120  1123     1 
 1123  1124     1 
 1123  1125     1 
 1123  1126     1 
 1126  1127     1 
 1126  1128     1 
 1126  1129     1 
 1129  1130     1 
 1129  1131     1 
 1129  1132     1 
 1132  1133     1 
 1132  1134     1 
 1132  1135     1 
 1135  1136     1 
 1135  1137     1 
 1137  1138     1 
 1137  1139     1 
 1139  1140     1 
 1139  1141     1 
 1139  1142     1 
 1142  1143     1 
 1142  1144     1 
 1142  1145     1 
 1145  1146     1 
 1145  1147     1 
 1145  1148     1 
 1148  1149     1 
 1148  1150     1 
 1148  1151     1 
 1151  1152     1 
 1151  1153     1 
 1151  1154     1 
 1154  1155     1 
 1154  1156     1 
 1154  1157     1 
 1157  1158     1 
 1157  1159     1 
 1157  1160     1 
 1160  1161     1 
 1160  1162     1 
 1160  1163     1 
 1164  1165     1 
 1164  1166     1 
 1164  1167     1 
 1167  1168     1 
 1167  1169     1 
 1167  1170     1 
 1170  1171     1 
 1170  1172     1 
 1170  1173     1 
 1173  1174     1 
 1173  1175     1 
 1173  1176     1 
 1176  1177     1 
 1176  1178     1 
 1176  1179     1 
 1179  1180     1 
 1179  1181     1 
 1179  1182     1 
 1182  1183     1 
 1182  1184     1 
 1182  1185     1 
 1185  1186     1 
 1185  1187     1 
 1185  1188     1 
 1188  1189     1 
 1188  1190     1 
 1188  1191     1 
 1191  1192     1 
 1191  1193     1 
 1191  1194     1 
 1194  1195     1 
 1194  1196     1 
 1194  1197     1 
 1197  1198     1 
 1197  1199     1 
 1197  1200     1 
 1200  1201     1 
 1200  1202     1 
 1200  1203     1 
 1203  1204     1 
 1203  1205     1 
 1203  1206     1 
 1207  1208     1 
 1207  1211     1 
 1207  1215     1 
 1207  1219     1 
 1208  1209     1 
 1208  1210     1 
 1208  1223     1 
 1211  1212     1 
 1211  1213     1 
 1211  1214     1 
 1215  1216     1 
 1215  1217     1 
 1215  1218     1 
 1219  1220     1 
 1219  1221     1 
 1219  1222     1 
 1223  1224     1 
 1223  1225     1 
 1223  1229     1 
 1226  1227     1 
 1226  1228     1 
 1226  1229     1 
 1226  1230     1 
 1230  1231     1 
 1231  1232     1 
 1231  1233     1 
 1231  1234     1 
 1234  1235     1 
 1234  1236     1 
 1234  1242     1 
 1236  1237     1 
 1237  1238     1 
 1237  1239     1 
 1239  1240     1 
 1239  1241     1 
 1239  1251     1 
 1242  1243     1 
 1242  1244     1 
 1242  1245     1 
 1245  1246     1 
 1246  1247     1 
 1246  1248     1 
 1248  1249     1 
 1248  1250     1 
 1248  1298     1 
 1251  1252     1 
 1251  1253     1 
 1251  1254     1 
 1254  1255     1 
 1254  1256     1 
 1254  1257     1 
 1257  1258     1 
 1257  1259     1 
 1257  1260     1 
 1260  1261     1 
 1260  1262     1 
 1260  1263     1 
 1263  1264     1 
 1263  1265     1 
 1263  1266     1 
 1266  1267     1 
 1266  1268     1 
 1266  1269     1 
 1269  1270     1 
 1269  1271     1 
 1271  1272     1 
 1271  1273     1 
 1273  1274     1 
 1273  1275     1 
 1273  1276     1 
 1276  1277     1 
 1276  1278     1 
 1276  1279     1 
 1279  1280     1 
 1279  1281     1 
 1279  1282     1 
 1282  1283     1 
 1282  1284     1 
 1282  1285     1 
 1285  1286     1 
 1285  1287     1 
 1285  1288     1 
 1288  1289     1 
 1288  1290     1 
 1288  1291     1 
 1291  1292     1 
 1291  1293     1 
 1291  1294     1 
 1294  1295     1 
 1294  1296     1 
 1294  1297     1 
 1298  1299     1 
 1298  1300     1 
 1298  1301     1 
 1301  1302     1 
 1301  1303     1 
 1301  1304     1 
 1304  1305     1 
 1304  1306     1 
 1304  1307     1 
 1307  1308     1 
 1307  1309     1 
 1307  1310     1 
 1310  1311     1 
 1310  1312     1 
 1310  1313     1 
 1313  1314     1 
 1313  1315     1 
 1313  1316     1 
 1316  1317     1 
 1316  1318     1 
 1316  1319     1 
 1319  1320     1 
 1319  1321     1 
 1319  1322     1 
 1322  1323     1 
 1322  1324     1 
 1322  1325     1 
 1325  1326     1 
 1325  1327     1 
 1325  1328     1 
 1328  1329     1 
 1328  1330     1 
 1328  1331     1 
 1331  1332     1 
 1331  1333     1 
 1331  1334     1 
 1334  1335     1 
 1334  1336     1 
 1334  1337     1 
 1337  1338     1 
 1337  1339     1 
 1337  1340     1 
 1341  1342     1 
 1341  1345     1 
 1341  1349     1 
 1341  1353     1 
 1342  1343     1 
 1342  1344     1 
 1342  1357     1 
 1345  1346     1 
 1345  1347     1 
 1345  1348     1 
 1349  1350     1 
 1349  1351     1 
 1349  1352     1 
 1353  1354     1 
 1353  1355     1 
 1353  1356     1 
 1357  1358     1 
 1357  1359     1 
 1357  1363     1 
 1360  1361     1 
 1360  1362     1 
 1360  1363     1 
 1360  1364     1 
 1364  1365     1 
 1365  1366     1 
 1365  1367     1 
 1365  1368     1 
 1368  1369     1 
 1368  1370     1 
 1368  1376     1 
 1370  1371     1 
 1371  1372     1 
 1371  1373     1 
 1373  1374     1 
 1373  1375     1 
 1373  1385     1 
 1376  1377     1 
 1376  1378     1 
 1376  1379     1 
 1379  1380     1 
 1380  1381     1 
 1380  1382     1 
 1382  1383     1 
 1382  1384     1 
 1382  1432     1 
 1385  1386     1 
 1385  1387     1 
 1385  1388     1 
 1388  1389     1 
 1388  1390     1 
 1388  1391     1 
 1391  1392     1 
 1391  1393     1 
 1391  1394     1 
 1394  1395     1 
 1394  1396     1 
 1394  1397     1 
 1397  1398     1 
 1397  1399     1 
 1397  1400     1 
 1400  1401     1 
 1400  1402     1 
 1400  1403     1 
 1403  1404     1 
 1403  1405     1 
 1405  1406     1 
 1405  1407     1 
 1407  1408     1 
 1407  1409     1 
 1407  1410     1 
 1410  1411     1 
 1410  1412     1 
 1410  1413     1 
 1413  1414     1 
 1413  1415     1 
 1413  1416     1 
 1416  1417     1 
 1416  1418     1 
 1416  1419     1 
 1419  1420     1 
 1419  1421     1 
 1419  1422     1 
 1422  1423     1 
 1422  1424     1 
 1422  1425     1 
 1425  1426     1 
 1425  1427     1 
 1425  1428     1 
 1428  1429     1 
 1428  1430     1 
 1428  1431     1 
 1432  1433     1 
 1432  1434     1 
 1432  1435     1 
 1435  1436     1 
 1435  1437     1 
 1435  1438     1 
 1438  1439     1 
 1438  1440     1 
 1438  1441     1 
 1441  1442     1 
 1441  1443     1 
 1441  1444     1 
 1444  1445     1 
 1444  1446     1 
 1444  1447     1 
 1447  1448     1 
 1447  1449     1 
 1447  1450     1 
 1450  1451     1 
 1450  1452     1 
 1450  1453     1 
 1453  1454     1 
 1453  1455     1 
 1453  1456     1 
 1456  1457     1 
 1456  1458     1 
 1456  1459     1 
 1459  1460     1 
 1459  1461     1 
 1459  1462     1 
 1462  1463     1 
 1462  1464     1 
 1462  1465     1 
 1465  1466     1 
 1465  1467     1 
 1465  1468     1 
 1468  1469     1 
 1468  1470     1 
 1468  1471     1 
 1471  1472     1 
 1471  1473     1 
 1471  1474     1 
 1475  1476     1 
 1475  1479     1 
 1475  1483     1 
 1475  1487     1 
 1476  1477     1 
 1476  1478     1 
 1476  1491     1 
 1479  1480     1 
 1479  1481     1 
 1479  1482     1 
 1483  1484     1 
 1483  1485     1 
 1483  1486     1 
 1487  1488     1 
 1487  1489     1 
 1487  1490     1 
 1491  1492     1 
 1491  1493     1 
 1491  1497     1 
 1494  1495     1 
 1494  1496     1 
 1494  1497     1 
 1494  1498     1 
 1498  1499     1 
 1499  1500     1 
 1499  1501     1 
 1499  1502     1 
 1502  1503     1 
 1502  1504     1 
 1502  1510     1 
 1504  1505     1 
 1505  1506     1 
 1505  1507     1 
 1507  1508     1 
 1507  1509     1 
 1507  1519     1 
 1510  1511     1 
 1510  1512     1 
 1510  1513     1 
 1513  1514     1 
 1514  1515     1 
 1514  1516     1 
 1516  1517     1 
 1516  1518     1 
 1516  1566     1 
 1519  1520     1 
 1519  1521     1 
 1519  1522     1 
 1522  1523     1 
 1522  1524     1 
 1522  1525     1 
 1525  1526     1 
 1525  1527     1 
 1525  1528     1 
 1528  1529     1 
 1528  1530     1 
 1528  1531     1 
 1531  1532     1 
 1531  1533     1 
 1531  1534     1 
 1534  1535     1 
 1534  1536     1 
 1534  1537     1 
 1537  1538     1 
 1537  1539     1 
 1539  1540     1 
 1539  1541     1 
 1541  1542     1 
 1541  1543     1 
 1541  1544     1 
 1544  1545     1 
 1544  1546     1 
 1544  1547     1 
 1547  1548     1 
 1547  1549     1 
 1547  1550     1 
 1550  1551     1 
 1550  1552     1 
 1550  1553     1 
 1553  1554     1 
 1553  1555     1 
 1553  1556     1 
 1556  1557     1 
 1556  1558     1 
 1556  1559     1 
 1559  1560     1 
 1559  1561     1 
 1559  1562     1 
 1562  1563     1 
 1562  1564     1 
 1562  1565     1 
 1566  1567     1 
 1566  1568     1 
 1566  1569     1 
 1569  1570     1 
 1569  1571     1 
 1569  1572     1 
 1572  1573     1 
 1572  1574     1 
 1572  1575     1 
 1575  1576     1 
 1575  1577     1 
 1575  1578     1 
 1578  1579     1 
 1578  1580     1 
 1578  1581     1 
 1581  1582     1 
 1581  1583     1 
 1581  1584     1 
 1584  1585     1 
 1584  1586     1 
 1584  1587     1 
 1587  1588     1 
 1587  1589     1 
 1587  1590     1 
 1590  1591     1 
 1590  1592     1 
 1590  1593     1 
 1593  1594     1 
 1593  1595     1 
 1593  1596     1 
 1596  1597     1 
 1596  1598     1 
 1596  1599     1 
 1599  1600     1 
 1599  1601     1 
 1599  1602     1 
 1602  1603     1 
 1602  1604     1 
 1602  1605     1 
 1605  1606     1 
 1605  1607     1 
 1605  1608     1 
 1609  1610     1 
 1609  1613     1 
 1609  1617     1 
 1609  1621     1 
 1610  1611     1 
 1610  1612     1 
 1610  1625     1 
 1613  1614     1 
 1613  1615     1 
 1613  1616     1 
 1617  1618     1 
 1617  1619     1 
 1617  1620     1 
 1621  1622     1 
 1621  1623     1 
 1621  1624     1 
 1625  1626     1 
 1625  1627     1 
 1625  1631     1 
 1628  1629     1 
 1628  1630     1 
 1628  1631     1 
 1628  1632     1 
 1632  1633     1 
 1633  1634     1 
 1633  1635     1 
 1633  1636     1 
 1636  1637     1 
 1636  1638     1 
 1636  1644     1 
 1638  1639     1 
 1639  1640     1 
 1639  1641     1 
 1641  1642     1 
 1641  1643     1 
 1641  1653     1 
 1644  1645     1 
 1644  1646     1 
 1644  1647     1 
 1647  1648     1 
 1648  1649     1 
 1648  1650     1 
 1650  1651     1 
 1650  1652     1 
 1650  1700     1 
 1653  1654     1 
 1653  1655     1 
 1653  1656     1 
 1656  1657     1 
 1656  1658     1 
 1656  1659     1 
 1659  1660     1 
 1659  1661     1 
 1659  1662     1 
 1662  1663     1 
 1662  1664     1 
 1662  1665     1 
 1665  1666     1 
 1665  1667     1 
 1665  1668     1 
 1668  1669     1 
 1668  1670     1 
 1668  1671     1 
 1671  1672     1 
 1671  1673     1 
 1673  1674     1 
 1673  1675     1 
 1675  1676     1 
 1675  1677     1 
 1675  1678     1 
 1678  1679     1 
 1678  1680     1 
 1678  1681     1 
 1681  1682     1 
 1681  1683     1 
 1681  1684     1 
 1684  1685     1 
 1684  1686     1 
 1684  1687     1 
 1687  1688     1 
 1687  1689     1 
 1687  1690     1 
 1690  1691     1 
 1690  1692     1 
 1690  1693     1 
 1693  1694     1 
 1693  1695     1 
 1693  1696     1 
 1696  1697     1 
 1696  1698     1 
 1696  1699     1 
 1700  1701     1 
 1700  1702     1 
 1700  1703     1 
 1703  1704     1 
 1703  1705     1 
 1703  1706     1 
 1706  1707     1 
 1706  1708     1 
 1706  1709     1 
 1709  1710     1 
 1709  1711     1 
 1709  1712     1 
 1712  1713     1 
 1712  1714     1 
 1712  1715     1 
 1715  1716     1 
 1715  1717     1 
 1715  1718     1 
 1718  1719     1 
 1718  1720     1 
 1718  1721     1 
 1721  1722     1 
 1721  1723     1 
 1721  1724     1 
 1724  1725     1 
 1724  1726     1 
 1724  1727     1 
 1727  1728     1 
 1727  1729     1 
 1727  1730     1 
 1730  1731     1 
 1730  1732     1 
 1730  1733     1 
 1733  1734     1 
 1733  1735     1 
 1733  1736     1 
 1736  1737     1 
 1736  1738     1 
 1736  1739     1 
 1739  1740     1 
 1739  1741     1 
 1739  1742     1 
 1743  1744     1 
 1743  1747     1 
 1743  1751     1 
 1743  1755     1 
 1744  1745     1 
 1744  1746     1 
 1744  1759     1 
 1747  1748     1 
 1747  1749     1 
 1747  1750     1 
 1751  1752     1 
 1751  1753     1 
 1751  1754     1 
 1755  1756     1 
 1755  1757     1 
 1755  1758     1 
 1759  1760     1 
 1759  1761     1 
 1759  1765     1 
 1762  1763     1 
 1762  1764     1 
 1762  1765     1 
 1762  1766     1 
 1766  1767     1 
 1767  1768     1 
 1767  1769     1 
 1767  1770     1 
 1770  1771     1 
 1770  1772     1 
 1770  1778     1 
 1772  1773     1 
 1773  1774     1 
 1773  1775     1 
 1775  1776     1 
 1775  1777     1 
 1775  1787     1 
 1778  1779     1 
 1778  1780     1 
 1778  1781     1 
 1781  1782     1 
 1782  1783     1 
 1782  1784     1 
 1784  1785     1 
 1784  1786     1 
 1784  1834     1 
 1787  1788     1 
 1787  1789     1 
 1787  1790     1 
 1790  1791     1 
 1790  1792     1 
 1790  1793     1 
 1793  1794     1 
 1793  1795     1 
 1793  1796     1 
 1796  1797     1 
 1796  1798     1 
 1796  1799     1 
 1799  1800     1 
 1799  1801     1 
 1799  1802     1 
 1802  1803     1 
 1802  1804     1 
 1802  1805     1 
 1805  1806     1 
 1805  1807     1 
 1807  1808     1 
 1807  1809     1 
 1809  1810     1 
 1809  1811     1 
 1809  1812     1 
 1812  1813     1 
 1812  1814     1 
 1812  1815     1 
 1815  1816     1 
 1815  1817     1 
 1815  1818     1 
 1818  1819     1 
 1818  1820     1 
 1818  1821     1 
 1821  1822     1 
 1821  1823     1 
 1821  1824     1 
 1824  1825     1 
 1824  1826     1 
 1824  1827     1 
 1827  1828     1 
 1827  1829     1 
 1827  1830     1 
 1830  1831     1 
 1830  1832     1 
 1830  1833     1 
 1834  1835     1 
 1834  1836     1 
 1834  1837     1 
 1837  1838     1 
 1837  1839     1 
 1837  1840     1 
 1840  1841     1 
 1840  1842     1 
 1840  1843     1 
 1843  1844     1 
 1843  1845     1 
 1843  1846     1 
 1846  1847     1 
 1846  1848     1 
 1846  1849     1 
 1849  1850     1 
 1849  1851     1 
 1849  1852     1 
 1852  1853     1 
 1852  1854     1 
 1852  1855     1 
 1855  1856     1 
 1855  1857     1 
 1855  1858     1 
 1858  1859     1 
 1858  1860     1 
 1858  1861     1 
 1861  1862     1 
 1861  1863     1 
 1861  1864     1 
 1864  1865     1 
 1864  1866     1 
 1864  1867     1 
 1867  1868     1 
 1867  1869     1 
 1867  1870     1 
 1870  1871     1 
 1870  1872     1 
 1870  1873     1 
 1873  1874     1 
 1873  1875     1 
 1873  1876     1 
 1877  1878     1 
 1877  1881     1 
 1877  1885     1 
 1877  1889     1 
 1878  1879     1 
 1878  1880     1 
 1878  1893     1 
 1881  1882     1 
 1881  1883     1 
 1881  1884     1 
 1885  1886     1 
 1885  1887     1 
 1885  1888     1 
 1889  1890     1 
 1889  1891     1 
 1889  1892     1 
 1893  1894     1 
 1893  1895     1 
 1893  1899     1 
 1896  1897     1 
 1896  1898     1 
 1896  1899     1 
 1896  1900     1 
 1900  1901     1 
 1901  1902     1 
 1901  1903     1 
 1901  1904     1 
 1904  1905     1 
 1904  1906     1 
 1904  1912     1 
 1906  1907     1 
 1907  1908     1 
 1907  1909     1 
 1909  1910     1 
 1909  1911     1 
 1909  1921     1 
 1912  1913     1 
 1912  1914     1 
 1912  1915     1 
 1915  1916     1 
 1916  1917     1 
 1916  1918     1 
 1918  1919     1 
 1918  1920     1 
 1918  1968     1 
 1921  1922     1 
 1921  1923     1 
 1921  1924     1 
 1924  1925     1 
 1924  1926     1 
 1924  1927     1 
 1927  1928     1 
 1927  1929     1 
 1927  1930     1 
 1930  1931     1 
 1930  1932     1 
 1930  1933     1 
 1933  1934     1 
 1933  1935     1 
 1933  1936     1 
 1936  1937     1 
 1936  1938     1 
 1936  1939     1 
 1939  1940     1 
 1939  1941     1 
 1941  1942     1 
 1941  1943     1 
 1943  1944     1 
 1943  1945     1 
 1943  1946     1 
 1946  1947     1 
 1946  1948     1 
 1946  1949     1 
 1949  1950     1 
 1949  1951     1 
 1949  1952     1 
 1952  1953     1 
 1952  1954     1 
 1952  1955     1 
 1955  1956     1 
 1955  1957     1 
 1955  1958     1 
 1958  1959     1 
 1958  1960     1 
 1958  1961     1 
 1961  1962     1 
 1961  1963     1 
 1961  1964     1 
 1964  1965     1 
 1964  1966     1 
 1964  1967     1 
 1968  1969     1 
 1968  1970     1 
 1968  1971     1 
 1971  1972     1 
 1971  1973     1 
 1971  1974     1 
 1974  1975     1 
 1974  1976     1 
 1974  1977     1 
 1977  1978     1 
 1977  1979     1 
 1977  1980     1 
 1980  1981     1 
 1980  1982     1 
 1980  1983     1 
 1983  1984     1 
 1983  1985     1 
 1983  1986     1 
 1986  1987     1 
 1986  1988     1 
 1986  1989     1 
 1989  1990     1 
 1989  1991     1 
 1989  1992     1 
 1992  1993     1 
 1992  1994     1 
 1992  1995     1 
 1995  1996     1 
 1995  1997     1 
 1995  1998     1 
 1998  1999     1 
 1998  2000     1 
 1998  2001     1 
 2001  2002     1 
 2001  2003     1 
 2001  2004     1 
 2004  2005     1 
 2004  2006     1 
 2004  2007     1 
 2007  2008     1 
 2007  2009     1 
 2007  2010     1 
 2011  2012     1 
 2011  2015     1 
 2011  2019     1 
 2011  2023     1 
 2012  2013     1 
 2012  2014     1 
 2012  2027     1 
 2015  2016     1 
 2015  2017     1 
 2015  2018     1 
 2019  2020     1 
 2019  2021     1 
 2019  2022     1 
 2023  2024     1 
 2023  2025     1 
 2023  2026     1 
 2027  2028     1 
 2027  2029     1 
 2027  2033     1 
 2030  2031     1 
 2030  2032     1 
 2030  2033     1 
 2030  2034     1 
 2034  2035     1 
 2035  2036     1 
 2035  2037     1 
 2035  2038     1 
 2038  2039     1 
 2038  2040     1 
 2038  2046     1 
 2040  2041     1 
 2041  2042     1 
 2041  2043     1 
 2043  2044     1 
 2043  2045     1 
 2043  2055     1 
 2046  2047     1 
 2046  2048     1 
 2046  2049     1 
 2049  2050     1 
 2050  2051     1 
 2050  2052     1 
 2052  2053     1 
 2052  2054     1 
 2052  2102     1 
 2055  2056     1 
 2055  2057     1 
 2055  2058     1 
 2058  2059     1 
 2058  2060     1 
 2058  2061     1 
 2061  2062     1 
 2061  2063     1 
 2061  2064     1 
 2064  2065     1 
 2064  2066     1 
 2064  2067     1 
 2067  2068     1 
 2067  2069     1 
 2067  2070     1 
 2070  2071     1 
 2070  2072     1 
 2070  2073     1 
 2073  2074     1 
 2073  2075     1 
 2075  2076     1 
 2075  2077     1 
 2077  2078     1 
 2077  2079     1 
 2077  2080     1 
 2080  2081     1 
 2080  2082     1 
 2080  2083     1 
 2083  2084     1 
 2083  2085     1 
 2083  2086     1 
 2086  2087     1 
 2086  2088     1 
 2086  2089     1 
 2089  2090     1 
 2089  2091     1 
 2089  2092     1 
 2092  2093     1 
 2092  2094     1 
 2092  2095     1 
 2095  2096     1 
 2095  2097     1 
 2095  2098     1 
 2098  2099     1 
 2098  2100     1 
 2098  2101     1 
 2102  2103     1 
 2102  2104     1 
 2102  2105     1 
 2105  2106     1 
 2105  2107     1 
 2105  2108     1 
 2108  2109     1 
 2108  2110     1 
 2108  2111     1 
 2111  2112     1 
 2111  2113     1 
 2111  2114     1 
 2114  2115     1 
 2114  2116     1 
 2114  2117     1 
 2117  2118     1 
 2117  2119     1 
 2117  2120     1 
 2120  2121     1 
 2120  2122     1 
 2120  2123     1 
 2123  2124     1 
 2123  2125     1 
 2123  2126     1 
 2126  2127     1 
 2126  2128     1 
 2126  2129     1 
 2129  2130     1 
 2129  2131     1 
 2129  2132     1 
 2132  2133     1 
 2132  2134     1 
 2132  2135     1 
 2135  2136     1 
 2135  2137     1 
 2135  2138     1 
 2138  2139     1 
 2138  2140     1 
 2138  2141     1 
 2141  2142     1 
 2141  2143     1 
 2141  2144     1 
 2145  2146     1 
 2145  2149     1 
 2145  2153     1 
 2145  2157     1 
 2146  2147     1 
 2146  2148     1 
 2146  2161     1 
 2149  2150     1 
 2149  2151     1 
 2149  2152     1 
 2153  2154     1 
 2153  2155     1 
 2153  2156     1 
 2157  2158     1 
 2157  2159     1 
 2157  2160     1 
 2161  2162     1 
 2161  2163     1 
 2161  2167     1 
 2164  2165     1 
 2164  2166     1 
 2164  2167     1 
 2164  2168     1 
 2168  2169     1 
 2169  2170     1 
 2169  2171     1 
 2169  2172     1 
 2172  2173     1 
 2172  2174     1 
 2172  2180     1 
 2174  2175     1 
 2175  2176     1 
 2175  2177     1 
 2177  2178     1 
 2177  2179     1 
 2177  2189     1 
 2180  2181     1 
 2180  2182     1 
 2180  2183     1 
 2183  2184     1 
 2184  2185     1 
 2184  2186     1 
 2186  2187     1 
 2186  2188     1 
 2186  2236     1 
 2189  2190     1 
 2189  2191     1 
 2189  2192     1 
 2192  2193     1 
 2192  2194     1 
 2192  2195     1 
 2195  2196     1 
 2195  2197     1 
 2195  2198     1 
 2198  2199     1 
 2198  2200     1 
 2198  2201     1 
 2201  2202     1 
 2201  2203     1 
 2201  2204     1 
 2204  2205     1 
 2204  2206     1 
 2204  2207     1 
 2207  2208     1 
 2207  2209     1 
 2209  2210     1 
 2209  2211     1 
 2211  2212     1 
 2211  2213     1 
 2211  2214     1 
 2214  2215     1 
 2214  2216     1 
 2214  2217     1 
 2217  2218     1 
 2217  2219     1 
 2217  2220     1 
 2220  2221     1 
 2220  2222     1 
 2220  2223     1 
 2223  2224     1 
 2223  2225     1 
 2223  2226     1 
 2226  2227     1 
 2226  2228     1 
 2226  2229     1 
 2229  2230     1 
 2229  2231     1 
 2229  2232     1 
 2232  2233     1 
 2232  2234     1 
 2232  2235     1 
 2236  2237     1 
 2236  2238     1 
 2236  2239     1 
 2239  2240     1 
 2239  2241     1 
 2239  2242     1 
 2242  2243     1 
 2242  2244     1 
 2242  2245     1 
 2245  2246     1 
 2245  2247     1 
 2245  2248     1 
 2248  2249     1 
 2248  2250     1 
 2248  2251     1 
 2251  2252     1 
 2251  2253     1 
 2251  2254     1 
 2254  2255     1 
 2254  2256     1 
 2254  2257     1 
 2257  2258     1 
 2257  2259     1 
 2257  2260     1 
 2260  2261     1 
 2260  2262     1 
 2260  2263     1 
 2263  2264     1 
 2263  2265     1 
 2263  2266     1 
 2266  2267     1 
 2266  2268     1 
 2266  2269     1 
 2269  2270     1 
 2269  2271     1 
 2269  2272     1 
 2272  2273     1 
 2272  2274     1 
 2272  2275     1 
 2275  2276     1 
 2275  2277     1 
 2275  2278     1 
 2279  2280     1 
 2279  2283     1 
 2279  2287     1 
 2279  2291     1 
 2280  2281     1 
 2280  2282     1 
 2280  2295     1 
 2283  2284     1 
 2283  2285     1 
 2283  2286     1 
 2287  2288     1 
 2287  2289     1 
 2287  2290     1 
 2291  2292     1 
 2291  2293     1 
 2291  2294     1 
 2295  2296     1 
 2295  2297     1 
 2295  2301     1 
 2298  2299     1 
 2298  2300     1 
 2298  2301     1 
 2298  2302     1 
 2302  2303     1 
 2303  2304     1 
 2303  2305     1 
 2303  2306     1 
 2306  2307     1 
 2306  2308     1 
 2306  2314     1 
 2308  2309     1 
 2309  2310     1 
 2309  2311     1 
 2311  2312     1 
 2311  2313     1 
 2311  2323     1 
 2314  2315     1 
 2314  2316     1 
 2314  2317     1 
 2317  2318     1 
 2318  2319     1 
 2318  2320     1 
 2320  2321     1 
 2320  2322     1 
 2320  2370     1 
 2323  2324     1 
 2323  2325     1 
 2323  2326     1 
 2326  2327     1 
 2326  2328     1 
 2326  2329     1 
 2329  2330     1 
 2329  2331     1 
 2329  2332     1 
 2332  2333     1 
 2332  2334     1 
 2332  2335     1 
 2335  2336     1 
 2335  2337     1 
 2335  2338     1 
 2338  2339     1 
 2338  2340     1 
 2338  2341     1 
 2341  2342     1 
 2341  2343     1 
 2343  2344     1 
 2343  2345     1 
 2345  2346     1 
 2345  2347     1 
 2345  2348     1 
 2348  2349     1 
 2348  2350     1 
 2348  2351     1 
 2351  2352     1 
 2351  2353     1 
 2351  2354     1 
 2354  2355     1 
 2354  2356     1 
 2354  2357     1 
 2357  2358     1 
 2357  2359     1 
 2357  2360     1 
 2360  2361     1 
 2360  2362     1 
 2360  2363     1 
 2363  2364     1 
 2363  2365     1 
 2363  2366     1 
 2366  2367     1 
 2366  2368     1 
 2366  2369     1 
 2370  2371     1 
 2370  2372     1 
 2370  2373     1 
 2373  2374     1 
 2373  2375     1 
 2373  2376     1 
 2376  2377     1 
 2376  2378     1 
 2376  2379     1 
 2379  2380     1 
 2379  2381     1 
 2379  2382     1 
 2382  2383     1 
 2382  2384     1 
 2382  2385     1 
 2385  2386     1 
 2385  2387     1 
 2385  2388     1 
 2388  2389     1 
 2388  2390     1 
 2388  2391     1 
 2391  2392     1 
 2391  2393     1 
 2391  2394     1 
 2394  2395     1 
 2394  2396     1 
 2394  2397     1 
 2397  2398     1 
 2397  2399     1 
 2397  2400     1 
 2400  2401     1 
 2400  2402     1 
 2400  2403     1 
 2403  2404     1 
 2403  2405     1 
 2403  2406     1 
 2406  2407     1 
 2406  2408     1 
 2406  2409     1 
 2409  2410     1 
 2409  2411     1 
 2409  2412     1 
 2413  2414     1 
 2413  2417     1 
 2413  2421     1 
 2413  2425     1 
 2414  2415     1 
 2414  2416     1 
 2414  2429     1 
 2417  2418     1 
 2417  2419     1 
 2417  2420     1 
 2421  2422     1 
 2421  2423     1 
 2421  2424     1 
 2425  2426     1 
 2425  2427     1 
 2425  2428     1 
 2429  2430     1 
 2429  2431     1 
 2429  2435     1 
 2432  2433     1 
 2432  2434     1 
 2432  2435     1 
 2432  2436     1 
 2436  2437     1 
 2437  2438     1 
 2437  2439     1 
 2437  2440     1 
 2440  2441     1 
 2440  2442     1 
 2440  2448     1 
 2442  2443     1 
 2443  2444     1 
 2443  2445     1 
 2445  2446     1 
 2445  2447     1 
 2445  2457     1 
 2448  2449     1 
 2448  2450     1 
 2448  2451     1 
 2451  2452     1 
 2452  2453     1 
 2452  2454     1 
 2454  2455     1 
 2454  2456     1 
 2454  2504     1 
 2457  2458     1 
 2457  2459     1 
 2457  2460     1 
 2460  2461     1 
 2460  2462     1 
 2460  2463     1 
 2463  2464     1 
 2463  2465     1 
 2463  2466     1 
 2466  2467     1 
 2466  2468     1 
 2466  2469     1 
 2469  2470     1 
 2469  2471     1 
 2469  2472     1 
 2472  2473     1 
 2472  2474     1 
 2472  2475     1 
 2475  2476     1 
 2475  2477     1 
 2477  2478     1 
 2477  2479     1 
 2479  2480     1 
 2479  2481     1 
 2479  2482     1 
 2482  2483     1 
 2482  2484     1 
 2482  2485     1 
 2485  2486     1 
 2485  2487     1 
 2485  2488     1 
 2488  2489     1 
 2488  2490     1 
 2488  2491     1 
 2491  2492     1 
 2491  2493     1 
 2491  2494     1 
 2494  2495     1 
 2494  2496     1 
 2494  2497     1 
 2497  2498     1 
 2497  2499     1 
 2497  2500     1 
 2500  2501     1 
 2500  2502     1 
 2500  2503     1 
 2504  2505     1 
 2504  2506     1 
 2504  2507     1 
 2507  2508     1 
 2507  2509     1 
 2507  2510     1 
 2510  2511     1 
 2510  2512     1 
 2510  2513     1 
 2513  2514     1 
 2513  2515     1 
 2513  2516     1 
 2516  2517     1 
 2516  2518     1 
 2516  2519     1 
 2519  2520     1 
 2519  2521     1 
 2519  2522     1 
 2522  2523     1 
 2522  2524     1 
 2522  2525     1 
 2525  2526     1 
 2525  2527     1 
 2525  2528     1 
 2528  2529     1 
 2528  2530     1 
 2528  2531     1 
 2531  2532     1 
 2531  2533     1 
 2531  2534     1 
 2534  2535     1 
 2534  2536     1 
 2534  2537     1 
 2537  2538     1 
 2537  2539     1 
 2537  2540     1 
 2540  2541     1 
 2540  2542     1 
 2540  2543     1 
 2543  2544     1 
 2543  2545     1 
 2543  2546     1 
 2547  2548     1 
 2547  2551     1 
 2547  2555     1 
 2547  2559     1 
 2548  2549     1 
 2548  2550     1 
 2548  2563     1 
 2551  2552     1 
 2551  2553     1 
 2551  2554     1 
 2555  2556     1 
 2555  2557     1 
 2555  2558     1 
 2559  2560     1 
 2559  2561     1 
 2559  2562     1 
 2563  2564     1 
 2563  2565     1 
 2563  2569     1 
 2566  2567     1 
 2566  2568     1 
 2566  2569     1 
 2566  2570     1 
 2570  2571     1 
 2571  2572     1 
 2571  2573     1 
 2571  2574     1 
 2574  2575     1 
 2574  2576     1 
 2574  2582     1 
 2576  2577     1 
 2577  2578     1 
 2577  2579     1 
 2579  2580     1 
 2579  2581     1 
 2579  2591     1 
 2582  2583     1 
 2582  2584     1 
 2582  2585     1 
 2585  2586     1 
 2586  2587     1 
 2586  2588     1 
 2588  2589     1 
 2588  2590     1 
 2588  2638     1 
 2591  2592     1 
 2591  2593     1 
 2591  2594     1 
 2594  2595     1 
 2594  2596     1 
 2594  2597     1 
 2597  2598     1 
 2597  2599     1 
 2597  2600     1 
 2600  2601     1 
 2600  2602     1 
 2600  2603     1 
 2603  2604     1 
 2603  2605     1 
 2603  2606     1 
 2606  2607     1 
 2606  2608     1 
 2606  2609     1 
 2609  2610     1 
 2609  2611     1 
 2611  2612     1 
 2611  2613     1 
 2613  2614     1 
 2613  2615     1 
 2613  2616     1 
 2616  2617     1 
 2616  2618     1 
 2616  2619     1 
 2619  2620     1 
 2619  2621     1 
 2619  2622     1 
 2622  2623     1 
 2622  2624     1 
 2622  2625     1 
 2625  2626     1 
 2625  2627     1 
 2625  2628     1 
 2628  2629     1 
 2628  2630     1 
 2628  2631     1 
 2631  2632     1 
 2631  2633     1 
 2631  2634     1 
 2634  2635     1 
 2634  2636     1 
 2634  2637     1 
 2638  2639     1 
 2638  2640     1 
 2638  2641     1 
 2641  2642     1 
 2641  2643     1 
 2641  2644     1 
 2644  2645     1 
 2644  2646     1 
 2644  2647     1 
 2647  2648     1 
 2647  2649     1 
 2647  2650     1 
 2650  2651     1 
 2650  2652     1 
 2650  2653     1 
 2653  2654     1 
 2653  2655     1 
 2653  2656     1 
 2656  2657     1 
 2656  2658     1 
 2656  2659     1 
 2659  2660     1 
 2659  2661     1 
 2659  2662     1 
 2662  2663     1 
 2662  2664     1 
 2662  2665     1 
 2665  2666     1 
 2665  2667     1 
 2665  2668     1 
 2668  2669     1 
 2668  2670     1 
 2668  2671     1 
 2671  2672     1 
 2671  2673     1 
 2671  2674     1 
 2674  2675     1 
 2674  2676     1 
 2674  2677     1 
 2677  2678     1 
 2677  2679     1 
 2677  2680     1 
 2681  2682     1 
 2681  2685     1 
 2681  2689     1 
 2681  2693     1 
 2682  2683     1 
 2682  2684     1 
 2682  2697     1 
 2685  2686     1 
 2685  2687     1 
 2685  2688     1 
 2689  2690     1 
 2689  2691     1 
 2689  2692     1 
 2693  2694     1 
 2693  2695     1 
 2693  2696     1 
 2697  2698     1 
 2697  2699     1 
 2697  2703     1 
 2700  2701     1 
 2700  2702     1 
 2700  2703     1 
 2700  2704     1 
 2704  2705     1 
 2705  2706     1 
 2705  2707     1 
 2705  2708     1 
 2708  2709     1 
 2708  2710     1 
 2708  2716     1 
 2710  2711     1 
 2711  2712     1 
 2711  2713     1 
 2713  2714     1 
 2713  2715     1 
 2713  2725     1 
 2716  2717     1 
 2716  2718     1 
 2716  2719     1 
 2719  2720     1 
 2720  2721     1 
 2720  2722     1 
 2722  2723     1 
 2722  2724     1 
 2722  2772     1 
 2725  2726     1 
 2725  2727     1 
 2725  2728     1 
 2728  2729     1 
 2728  2730     1 
 2728  2731     1 
 2731  2732     1 
 2731  2733     1 
 2731  2734     1 
 2734  2735     1 
 2734  2736     1 
 2734  2737     1 
 2737  2738     1 
 2737  2739     1 
 2737  2740     1 
 2740  2741     1 
 2740  2742     1 
 2740  2743     1 
 2743  2744     1 
 2743  2745     1 
 2745  2746     1 
 2745  2747     1 
 2747  2748     1 
 2747  2749     1 
 2747  2750     1 
 2750  2751     1 
 2750  2752     1 
 2750  2753     1 
 2753  2754     1 
 2753  2755     1 
 2753  2756     1 
 2756  2757     1 
 2756  2758     1 
 2756  2759     1 
 2759  2760     1 
 2759  2761     1 
 2759  2762     1 
 2762  2763     1 
 2762  2764     1 
 2762  2765     1 
 2765  2766     1 
 2765  2767     1 
 2765  2768     1 
 2768  2769     1 
 2768  2770     1 
 2768  2771     1 
 2772  2773     1 
 2772  2774     1 
 2772  2775     1 
 2775  2776     1 
 2775  2777     1 
 2775  2778     1 
 2778  2779     1 
 2778  2780     1 
 2778  2781     1 
 2781  2782     1 
 2781  2783     1 
 2781  2784     1 
 2784  2785     1 
 2784  2786     1 
 2784  2787     1 
 2787  2788     1 
 2787  2789     1 
 2787  2790     1 
 2790  2791     1 
 2790  2792     1 
 2790  2793     1 
 2793  2794     1 
 2793  2795     1 
 2793  2796     1 
 2796  2797     1 
 2796  2798     1 
 2796  2799     1 
 2799  2800     1 
 2799  2801     1 
 2799  2802     1 
 2802  2803     1 
 2802  2804     1 
 2802  2805     1 
 2805  2806     1 
 2805  2807     1 
 2805  2808     1 
 2808  2809     1 
 2808  2810     1 
 2808  2811     1 
 2811  2812     1 
 2811  2813     1 
 2811  2814     1 
 2815  2816     1 
 2815  2819     1 
 2815  2823     1 
 2815  2827     1 
 2816  2817     1 
 2816  2818     1 
 2816  2831     1 
 2819  2820     1 
 2819  2821     1 
 2819  2822     1 
 2823  2824     1 
 2823  2825     1 
 2823  2826     1 
 2827  2828     1 
 2827  2829     1 
 2827  2830     1 
 2831  2832     1 
 2831  2833     1 
 2831  2837     1 
 2834  2835     1 
 2834  2836     1 
 2834  2837     1 
 2834  2838     1 
 2838  2839     1 
 2839  2840     1 
 2839  2841     1 
 2839  2842     1 
 2842  2843     1 
 2842  2844     1 
 2842  2850     1 
 2844  2845     1 
 2845  2846     1 
 2845  2847     1 
 2847  2848     1 
 2847  2849     1 
 2847  2859     1 
 2850  2851     1 
 2850  2852     1 
 2850  2853     1 
 2853  2854     1 
 2854  2855     1 
 2854  2856     1 
 2856  2857     1 
 2856  2858     1 
 2856  2906     1 
 2859  2860     1 
 2859  2861     1 
 2859  2862     1 
 2862  2863     1 
 2862  2864     1 
 2862  2865     1 
 2865  2866     1 
 2865  2867     1 
 2865  2868     1 
 2868  2869     1 
 2868  2870     1 
 2868  2871     1 
 2871  2872     1 
 2871  2873     1 
 2871  2874     1 
 2874  2875     1 
 2874  2876     1 
 2874  2877     1 
 2877  2878     1 
 2877  2879     1 
 2879  2880     1 
 2879  2881     1 
 2881  2882     1 
 2881  2883     1 
 2881  2884     1 
 2884  2885     1 
 2884  2886     1 
 2884  2887     1 
 2887  2888     1 
 2887  2889     1 
 2887  2890     1 
 2890  2891     1 
 2890  2892     1 
 2890  2893     1 
 2893  2894     1 
 2893  2895     1 
 2893  2896     1 
 2896  2897     1 
 2896  2898     1 
 2896  2899     1 
 2899  2900     1 
 2899  2901     1 
 2899  2902     1 
 2902  2903     1 
 2902  2904     1 
 2902  2905     1 
 2906  2907     1 
 2906  2908     1 
 2906  2909     1 
 2909  2910     1 
 2909  2911     1 
 2909  2912     1 
 2912  2913     1 
 2912  2914     1 
 2912  2915     1 
 2915  2916     1 
 2915  2917     1 
 2915  2918     1 
 2918  2919     1 
 2918  2920     1 
 2918  2921     1 
 2921  2922     1 
 2921  2923     1 
 2921  2924     1 
 2924  2925     1 
 2924  2926     1 
 2924  2927     1 
 2927  2928     1 
 2927  2929     1 
 2927  2930     1 
 2930  2931     1 
 2930  2932     1 
 2930  2933     1 
 2933  2934     1 
 2933  2935     1 
 2933  2936     1 
 2936  2937     1 
 2936  2938     1 
 2936  2939     1 
 2939  2940     1 
 2939  2941     1 
 2939  2942     1 
 2942  2943     1 
 2942  2944     1 
 2942  2945     1 
 2945  2946     1 
 2945  2947     1 
 2945  2948     1 
 2949  2950     1 
 2949  2953     1 
 2949  2957     1 
 2949  2961     1 
 2950  2951     1 
 2950  2952     1 
 2950  2965     1 
 2953  2954     1 
 2953  2955     1 
 2953  2956     1 
 2957  2958     1 
 2957  2959     1 
 2957  2960     1 
 2961  2962     1 
 2961  2963     1 
 2961  2964     1 
 2965  2966     1 
 2965  2967     1 
 2965  2971     1 
 2968  2969     1 
 2968  2970     1 
 2968  2971     1 
 2968  2972     1 
 2972  2973     1 
 2973  2974     1 
 2973  2975     1 
 2973  2976     1 
 2976  2977     1 
 2976  2978     1 
 2976  2984     1 
 2978  2979     1 
 2979  2980     1 
 2979  2981     1 
 2981  2982     1 
 2981  2983     1 
 2981  2993     1 
 2984  2985     1 
 2984  2986     1 
 2984  2987     1 
 2987  2988     1 
 2988  2989     1 
 2988  2990     1 
 2990  2991     1 
 2990  2992     1 
 2990  3040     1 
 2993  2994     1 
 2993  2995     1 
 2993  2996     1 
 2996  2997     1 
 2996  2998     1 
 2996  2999     1 
 2999  3000     1 
 2999  3001     1 
 2999  3002     1 
 3002  3003     1 
 3002  3004     1 
 3002  3005     1 
 3005  3006     1 
 3005  3007     1 
 3005  3008     1 
 3008  3009     1 
 3008  3010     1 
 3008  3011     1 
 3011  3012     1 
 3011  3013     1 
 3013  3014     1 
 3013  3015     1 
 3015  3016     1 
 3015  3017     1 
 3015  3018     1 
 3018  3019     1 
 3018  3020     1 
 3018  3021     1 
 3021  3022     1 
 3021  3023     1 
 3021  3024     1 
 3024  3025     1 
 3024  3026     1 
 3024  3027     1 
 3027  3028     1 
 3027  3029     1 
 3027  3030     1 
 3030  3031     1 
 3030  3032     1 
 3030  3033     1 
 3033  3034     1 
 3033  3035     1 
 3033  3036     1 
 3036  3037     1 
 3036  3038     1 
 3036  3039     1 
 3040  3041     1 
 3040  3042     1 
 3040  3043     1 
 3043  3044     1 
 3043  3045     1 
 3043  3046     1 
 3046  3047     1 
 3046  3048     1 
 3046  3049     1 
 3049  3050     1 
 3049  3051     1 
 3049  3052     1 
 3052  3053     1 
 3052  3054     1 
 3052  3055     1 
 3055  3056     1 
 3055  3057     1 
 3055  3058     1 
 3058  3059     1 
 3058  3060     1 
 3058  3061     1 
 3061  3062     1 
 3061  3063     1 
 3061  3064     1 
 3064  3065     1 
 3064  3066     1 
 3064  3067     1 
 3067  3068     1 
 3067  3069     1 
 3067  3070     1 
 3070  3071     1 
 3070  3072     1 
 3070  3073     1 
 3073  3074     1 
 3073  3075     1 
 3073  3076     1 
 3076  3077     1 
 3076  3078     1 
 3076  3079     1 
 3079  3080     1 
 3079  3081     1 
 3079  3082     1 
 3083  3084     1 
 3083  3087     1 
 3083  3091     1 
 3083  3095     1 
 3084  3085     1 
 3084  3086     1 
 3084  3099     1 
 3087  3088     1 
 3087  3089     1 
 3087  3090     1 
 3091  3092     1 
 3091  3093     1 
 3091  3094     1 
 3095  3096     1 
 3095  3097     1 
 3095  3098     1 
 3099  3100     1 
 3099  3101     1 
 3099  3105     1 
 3102  3103     1 
 3102  3104     1 
 3102  3105     1 
 3102  3106     1 
 3106  3107     1 
 3107  3108     1 
 3107  3109     1 
 3107  3110     1 
 3110  3111     1 
 3110  3112     1 
 3110  3118     1 
 3112  3113     1 
 3113  3114     1 
 3113  3115     1 
 3115  3116     1 
 3115  3117     1 
 3115  3127     1 
 3118  3119     1 
 3118  3120     1 
 3118  3121     1 
 3121  3122     1 
 3122  3123     1 
 3122  3124     1 
 3124  3125     1 
 3124  3126     1 
 3124  3174     1 
 3127  3128     1 
 3127  3129     1 
 3127  3130     1 
 3130  3131     1 
 3130  3132     1 
 3130  3133     1 
 3133  3134     1 
 3133  3135     1 
 3133  3136     1 
 3136  3137     1 
 3136  3138     1 
 3136  3139     1 
 3139  3140     1 
 3139  3141     1 
 3139  3142     1 
 3142  3143     1 
 3142  3144     1 
 3142  3145     1 
 3145  3146     1 
 3145  3147     1 
 3147  3148     1 
 3147  3149     1 
 3149  3150     1 
 3149  3151     1 
 3149  3152     1 
 3152  3153     1 
 3152  3154     1 
 3152  3155     1 
 3155  3156     1 
 3155  3157     1 
 3155  3158     1 
 3158  3159     1 
 3158  3160     1 
 3158  3161     1 
 3161  3162     1 
 3161  3163     1 
 3161  3164     1 
 3164  3165     1 
 3164  3166     1 
 3164  3167     1 
 3167  3168     1 
 3167  3169     1 
 3167  3170     1 
 3170  3171     1 
 3170  3172     1 
 3170  3173     1 
 3174  3175     1 
 3174  3176     1 
 3174  3177     1 
 3177  3178     1 
 3177  3179     1 
 3177  3180     1 
 3180  3181     1 
 3180  3182     1 
 3180  3183     1 
 3183  3184     1 
 3183  3185     1 
 3183  3186     1 
 3186  3187     1 
 3186  3188     1 
 3186  3189     1 
 3189  3190     1 
 3189  3191     1 
 3189  3192     1 
 3192  3193     1 
 3192  3194     1 
 3192  3195     1 
 3195  3196     1 
 3195  3197     1 
 3195  3198     1 
 3198  3199     1 
 3198  3200     1 
 3198  3201     1 
 3201  3202     1 
 3201  3203     1 
 3201  3204     1 
 3204  3205     1 
 3204  3206     1 
 3204  3207     1 
 3207  3208     1 
 3207  3209     1 
 3207  3210     1 
 3210  3211     1 
 3210  3212     1 
 3210  3213     1 
 3213  3214     1 
 3213  3215     1 
 3213  3216     1 
 3217  3218     1 
 3217  3221     1 
 3217  3225     1 
 3217  3229     1 
 3218  3219     1 
 3218  3220     1 
 3218  3233     1 
 3221  3222     1 
 3221  3223     1 
 3221  3224     1 
 3225  3226     1 
 3225  3227     1 
 3225  3228     1 
 3229  3230     1 
 3229  3231     1 
 3229  3232     1 
 3233  3234     1 
 3233  3235     1 
 3233  3239     1 
 3236  3237     1 
 3236  3238     1 
 3236  3239     1 
 3236  3240     1 
 3240  3241     1 
 3241  3242     1 
 3241  3243     1 
 3241  3244     1 
 3244  3245     1 
 3244  3246     1 
 3244  3252     1 
 3246  3247     1 
 3247  3248     1 
 3247  3249     1 
 3249  3250     1 
 3249  3251     1 
 3249  3261     1 
 3252  3253     1 
 3252  3254     1 
 3252  3255     1 
 3255  3256     1 
 3256  3257     1 
 3256  3258     1 
 3258  3259     1 
 3258  3260     1 
 3258  3308     1 
 3261  3262     1 
 3261  3263     1 
 3261  3264     1 
 3264  3265     1 
 3264  3266     1 
 3264  3267     1 
 3267  3268     1 
 3267  3269     1 
 3267  3270     1 
 3270  3271     1 
 3270  3272     1 
 3270  3273     1 
 3273  3274     1 
 3273  3275     1 
 3273  3276     1 
 3276  3277     1 
 3276  3278     1 
 3276  3279     1 
 3279  3280     1 
 3279  3281     1 
 3281  3282     1 
 3281  3283     1 
 3283  3284     1 
 3283  3285     1 
 3283  3286     1 
 3286  3287     1 
 3286  3288     1 
 3286  3289     1 
 3289  3290     1 
 3289  3291     1 
 3289  3292     1 
 3292  3293     1 
 3292  3294     1 
 3292  3295     1 
 3295  3296     1 
 3295  3297     1 
 3295  3298     1 
 3298  3299     1 
 3298  3300     1 
 3298  3301     1 
 3301  3302     1 
 3301  3303     1 
 3301  3304     1 
 3304  3305     1 
 3304  3306     1 
 3304  3307     1 
 3308  3309     1 
 3308  3310     1 
 3308  3311     1 
 3311  3312     1 
 3311  3313     1 
 3311  3314     1 
 3314  3315     1 
 3314  3316     1 
 3314  3317     1 
 3317  3318     1 
 3317  3319     1 
 3317  3320     1 
 3320  3321     1 
 3320  3322     1 
 3320  3323     1 
 3323  3324     1 
 3323  3325     1 
 3323  3326     1 
 3326  3327     1 
 3326  3328     1 
 3326  3329     1 
 3329  3330     1 
 3329  3331     1 
 3329  3332     1 
 3332  3333     1 
 3332  3334     1 
 3332  3335     1 
 3335  3336     1 
 3335  3337     1 
 3335  3338     1 
 3338  3339     1 
 3338  3340     1 
 3338  3341     1 
 3341  3342     1 
 3341  3343     1 
 3341  3344     1 
 3344  3345     1 
 3344  3346     1 
 3344  3347     1 
 3347  3348     1 
 3347  3349     1 
 3347  3350     1 
 3351  3352     1 
 3351  3355     1 
 3351  3359     1 
 3351  3363     1 
 3352  3353     1 
 3352  3354     1 
 3352  3367     1 
 3355  3356     1 
 3355  3357     1 
 3355  3358     1 
 3359  3360     1 
 3359  3361     1 
 3359  3362     1 
 3363  3364     1 
 3363  3365     1 
 3363  3366     1 
 3367  3368     1 
 3367  3369     1 
 3367  3373     1 
 3370  3371     1 
 3370  3372     1 
 3370  3373     1 
 3370  3374     1 
 3374  3375     1 
 3375  3376     1 
 3375  3377     1 
 3375  3378     1 
 3378  3379     1 
 3378  3380     1 
 3378  3386     1 
 3380  3381     1 
 3381  3382     1 
 3381  3383     1 
 3383  3384     1 
 3383  3385     1 
 3383  3395     1 
 3386  3387     1 
 3386  3388     1 
 3386  3389     1 
 3389  3390     1 
 3390  3391     1 
 3390  3392     1 
 3392  3393     1 
 3392  3394     1 
 3392  3442     1 
 3395  3396     1 
 3395  3397     1 
 3395  3398     1 
 3398  3399     1 
 3398  3400     1 
 3398  3401     1 
 3401  3402     1 
 3401  3403     1 
 3401  3404     1 
 3404  3405     1 
 3404  3406     1 
 3404  3407     1 
 3407  3408     1 
 3407  3409     1 
 3407  3410     1 
 3410  3411     1 
 3410  3412     1 
 3410  3413     1 
 3413  3414     1 
 3413  3415     1 
 3415  3416     1 
 3415  3417     1 
 3417  3418     1 
 3417  3419     1 
 3417  3420     1 
 3420  3421     1 
 3420  3422     1 
 3420  3423     1 
 3423  3424     1 
 3423  3425     1 
 3423  3426     1 
 3426  3427     1 
 3426  3428     1 
 3426  3429     1 
 3429  3430     1 
 3429  3431     1 
 3429  3432     1 
 3432  3433     1 
 3432  3434     1 
 3432  3435     1 
 3435  3436     1 
 3435  3437     1 
 3435  3438     1 
 3438  3439     1 
 3438  3440     1 
 3438  3441     1 
 3442  3443     1 
 3442  3444     1 
 3442  3445     1 
 3445  3446     1 
 3445  3447     1 
 3445  3448     1 
 3448  3449     1 
 3448  3450     1 
 3448  3451     1 
 3451  3452     1 
 3451  3453     1 
 3451  3454     1 
 3454  3455     1 
 3454  3456     1 
 3454  3457     1 
 3457  3458     1 
 3457  3459     1 
 3457  3460     1 
 3460  3461     1 
 3460  3462     1 
 3460  3463     1 
 3463  3464     1 
 3463  3465     1 
 3463  3466     1 
 3466  3467     1 
 3466  3468     1 
 3466  3469     1 
 3469  3470     1 
 3469  3471     1 
 3469  3472     1 
 3472  3473     1 
 3472  3474     1 
 3472  3475     1 
 3475  3476     1 
 3475  3477     1 
 3475  3478     1 
 3478  3479     1 
 3478  3480     1 
 3478  3481     1 
 3481  3482     1 
 3481  3483     1 
 3481  3484     1 
 3485  3486     1 
 3485  3489     1 
 3485  3493     1 
 3485  3497     1 
 3486  3487     1 
 3486  3488     1 
 3486  3501     1 
 3489  3490     1 
 3489  3491     1 
 3489  3492     1 
 3493  3494     1 
 3493  3495     1 
 3493  3496     1 
 3497  3498     1 
 3497  3499     1 
 3497  3500     1 
 3501  3502     1 
 3501  3503     1 
 3501  3507     1 
 3504  3505     1 
 3504  3506     1 
 3504  3507     1 
 3504  3508     1 
 3508  3509     1 
 3509  3510     1 
 3509  3511     1 
 3509  3512     1 
 3512  3513     1 
 3512  3514     1 
 3512  3520     1 
 3514  3515     1 
 3515  3516     1 
 3515  3517     1 
 3517  3518     1 
 3517  3519     1 
 3517  3529     1 
 3520  3521     1 
 3520  3522     1 
 3520  3523     1 
 3523  3524     1 
 3524  3525     1 
 3524  3526     1 
 3526  3527     1 
 3526  3528     1 
 3526  3576     1 
 3529  3530     1 
 3529  3531     1 
 3529  3532     1 
 3532  3533     1 
 3532  3534     1 
 3532  3535     1 
 3535  3536     1 
 3535  3537     1 
 3535  3538     1 
 3538  3539     1 
 3538  3540     1 
 3538  3541     1 
 3541  3542     1 
 3541  3543     1 
 3541  3544     1 
 3544  3545     1 
 3544  3546     1 
 3544  3547     1 
 3547  3548     1 
 3547  3549     1 
 3549  3550     1 
 3549  3551     1 
 3551  3552     1 
 3551  3553     1 
 3551  3554     1 
 3554  3555     1 
 3554  3556     1 
 3554  3557     1 
 3557  3558     1 
 3557  3559     1 
 3557  3560     1 
 3560  3561     1 
 3560  3562     1 
 3560  3563     1 
 3563  3564     1 
 3563  3565     1 
 3563  3566     1 
 3566  3567     1 
 3566  3568     1 
 3566  3569     1 
 3569  3570     1 
 3569  3571     1 
 3569  3572     1 
 3572  3573     1 
 3572  3574     1 
 3572  3575     1 
 3576  3577     1 
 3576  3578     1 
 3576  3579     1 
 3579  3580     1 
 3579  3581     1 
 3579  3582     1 
 3582  3583     1 
 3582  3584     1 
 3582  3585     1 
 3585  3586     1 
 3585  3587     1 
 3585  3588     1 
 3588  3589     1 
 3588  3590     1 
 3588  3591     1 
 3591  3592     1 
 3591  3593     1 
 3591  3594     1 
 3594  3595     1 
 3594  3596     1 
 3594  3597     1 
 3597  3598     1 
 3597  3599     1 
 3597  3600     1 
 3600  3601     1 
 3600  3602     1 
 3600  3603     1 
 3603  3604     1 
 3603  3605     1 
 3603  3606     1 
 3606  3607     1 
 3606  3608     1 
 3606  3609     1 
 3609  3610     1 
 3609  3611     1 
 3609  3612     1 
 3612  3613     1 
 3612  3614     1 
 3612  3615     1 
 3615  3616     1 
 3615  3617     1 
 3615  3618     1 
 3619  3620     1 
 3619  3623     1 
 3619  3627     1 
 3619  3631     1 
 3620  3621     1 
 3620  3622     1 
 3620  3635     1 
 3623  3624     1 
 3623  3625     1 
 3623  3626     1 
 3627  3628     1 
 3627  3629     1 
 3627  3630     1 
 3631  3632     1 
 3631  3633     1 
 3631  3634     1 
 3635  3636     1 
 3635  3637     1 
 3635  3641     1 
 3638  3639     1 
 3638  3640     1 
 3638  3641     1 
 3638  3642     1 
 3642  3643     1 
 3643  3644     1 
 3643  3645     1 
 3643  3646     1 
 3646  3647     1 
 3646  3648     1 
 3646  3654     1 
 3648  3649     1 
 3649  3650     1 
 3649  3651     1 
 3651  3652     1 
 3651  3653     1 
 3651  3663     1 
 3654  3655     1 
 3654  3656     1 
 3654  3657     1 
 3657  3658     1 
 3658  3659     1 
 3658  3660     1 
 3660  3661     1 
 3660  3662     1 
 3660  3710     1 
 3663  3664     1 
 3663  3665     1 
 3663  3666     1 
 3666  3667     1 
 3666  3668     1 
 3666  3669     1 
 3669  3670     1 
 3669  3671     1 
 3669  3672     1 
 3672  3673     1 
 3672  3674     1 
 3672  3675     1 
 3675  3676     1 
 3675  3677     1 
 3675  3678     1 
 3678  3679     1 
 3678  3680     1 
 3678  3681     1 
 3681  3682     1 
 3681  3683     1 
 3683  3684     1 
 3683  3685     1 
 3685  3686     1 
 3685  3687     1 
 3685  3688     1 
 3688  3689     1 
 3688  3690     1 
 3688  3691     1 
 3691  3692     1 
 3691  3693     1 
 3691  3694     1 
 3694  3695     1 
 3694  3696     1 
 3694  3697     1 
 3697  3698     1 
 3697  3699     1 
 3697  3700     1 
 3700  3701     1 
 3700  3702     1 
 3700  3703     1 
 3703  3704     1 
 3703  3705     1 
 3703  3706     1 
 3706  3707     1 
 3706  3708     1 
 3706  3709     1 
 3710  3711     1 
 3710  3712     1 
 3710  3713     1 
 3713  3714     1 
 3713  3715     1 
 3713  3716     1 
 3716  3717     1 
 3716  3718     1 
 3716  3719     1 
 3719  3720     1 
 3719  3721     1 
 3719  3722     1 
 3722  3723     1 
 3722  3724     1 
 3722  3725     1 
 3725  3726     1 
 3725  3727     1 
 3725  3728     1 
 3728  3729     1 
 3728  3730     1 
 3728  3731     1 
 3731  3732     1 
 3731  3733     1 
 3731  3734     1 
 3734  3735     1 
 3734  3736     1 
 3734  3737     1 
 3737  3738     1 
 3737  3739     1 
 3737  3740     1 
 3740  3741     1 
 3740  3742     1 
 3740  3743     1 
 3743  3744     1 
 3743  3745     1 
 3743  3746     1 
 3746  3747     1 
 3746  3748     1 
 3746  3749     1 
 3749  3750     1 
 3749  3751     1 
 3749  3752     1 
 3753  3754     1 
 3753  3757     1 
 3753  3761     1 
 3753  3765     1 
 3754  3755     1 
 3754  3756     1 
 3754  3769     1 
 3757  3758     1 
 3757  3759     1 
 3757  3760     1 
 3761  3762     1 
 3761  3763     1 
 3761  3764     1 
 3765  3766     1 
 3765  3767     1 
 3765  3768     1 
 3769  3770     1 
 3769  3771     1 
 3769  3775     1 
 3772  3773     1 
 3772  3774     1 
 3772  3775     1 
 3772  3776     1 
 3776  3777     1 
 3777  3778     1 
 3777  3779     1 
 3777  3780     1 
 3780  3781     1 
 3780  3782     1 
 3780  3788     1 
 3782  3783     1 
 3783  3784     1 
 3783  3785     1 
 3785  3786     1 
 3785  3787     1 
 3785  3797     1 
 3788  3789     1 
 3788  3790     1 
 3788  3791     1 
 3791  3792     1 
 3792  3793     1 
 3792  3794     1 
 3794  3795     1 
 3794  3796     1 
 3794  3844     1 
 3797  3798     1 
 3797  3799     1 
 3797  3800     1 
 3800  3801     1 
 3800  3802     1 
 3800  3803     1 
 3803  3804     1 
 3803  3805     1 
 3803  3806     1 
 3806  3807     1 
 3806  3808     1 
 3806  3809     1 
 3809  3810     1 
 3809  3811     1 
 3809  3812     1 
 3812  3813     1 
 3812  3814     1 
 3812  3815     1 
 3815  3816     1 
 3815  3817     1 
 3817  3818     1 
 3817  3819     1 
 3819  3820     1 
 3819  3821     1 
 3819  3822     1 
 3822  3823     1 
 3822  3824     1 
 3822  3825     1 
 3825  3826     1 
 3825  3827     1 
 3825  3828     1 
 3828  3829     1 
 3828  3830     1 
 3828  3831     1 
 3831  3832     1 
 3831  3833     1 
 3831  3834     1 
 3834  3835     1 
 3834  3836     1 
 3834  3837     1 
 3837  3838     1 
 3837  3839     1 
 3837  3840     1 
 3840  3841     1 
 3840  3842     1 
 3840  3843     1 
 3844  3845     1 
 3844  3846     1 
 3844  3847     1 
 3847  3848     1 
 3847  3849     1 
 3847  3850     1 
 3850  3851     1 
 3850  3852     1 
 3850  3853     1 
 3853  3854     1 
 3853  3855     1 
 3853  3856     1 
 3856  3857     1 
 3856  3858     1 
 3856  3859     1 
 3859  3860     1 
 3859  3861     1 
 3859  3862     1 
 3862  3863     1 
 3862  3864     1 
 3862  3865     1 
 3865  3866     1 
 3865  3867     1 
 3865  3868     1 
 3868  3869     1 
 3868  3870     1 
 3868  3871     1 
 3871  3872     1 
 3871  3873     1 
 3871  3874     1 
 3874  3875     1 
 3874  3876     1 
 3874  3877     1 
 3877  3878     1 
 3877  3879     1 
 3877  3880     1 
 3880  3881     1 
 3880  3882     1 
 3880  3883     1 
 3883  3884     1 
 3883  3885     1 
 3883  3886     1 
 3887  3888     1 
 3887  3891     1 
 3887  3895     1 
 3887  3899     1 
 3888  3889     1 
 3888  3890     1 
 3888  3903     1 
 3891  3892     1 
 3891  3893     1 
 3891  3894     1 
 3895  3896     1 
 3895  3897     1 
 3895  3898     1 
 3899  3900     1 
 3899  3901     1 
 3899  3902     1 
 3903  3904     1 
 3903  3905     1 
 3903  3909     1 
 3906  3907     1 
 3906  3908     1 
 3906  3909     1 
 3906  3910     1 
 3910  3911     1 
 3911  3912     1 
 3911  3913     1 
 3911  3914     1 
 3914  3915     1 
 3914  3916     1 
 3914  3922     1 
 3916  3917     1 
 3917  3918     1 
 3917  3919     1 
 3919  3920     1 
 3919  3921     1 
 3919  3931     1 
 3922  3923     1 
 3922  3924     1 
 3922  3925     1 
 3925  3926     1 
 3926  3927     1 
 3926  3928     1 
 3928  3929     1 
 3928  3930     1 
 3928  3978     1 
 3931  3932     1 
 3931  3933     1 
 3931  3934     1 
 3934  3935     1 
 3934  3936     1 
 3934  3937     1 
 3937  3938     1 
 3937  3939     1 
 3937  3940     1 
 3940  3941     1 
 3940  3942     1 
 3940  3943     1 
 3943  3944     1 
 3943  3945     1 
 3943  3946     1 
 3946  3947     1 
 3946  3948     1 
 3946  3949     1 
 3949  3950     1 
 3949  3951     1 
 3951  3952     1 
 3951  3953     1 
 3953  3954     1 
 3953  3955     1 
 3953  3956     1 
 3956  3957     1 
 3956  3958     1 
 3956  3959     1 
 3959  3960     1 
 3959  3961     1 
 3959  3962     1 
 3962  3963     1 
 3962  3964     1 
 3962  3965     1 
 3965  3966     1 
 3965  3967     1 
 3965  3968     1 
 3968  3969     1 
 3968  3970     1 
 3968  3971     1 
 3971  3972     1 
 3971  3973     1 
 3971  3974     1 
 3974  3975     1 
 3974  3976     1 
 3974  3977     1 
 3978  3979     1 
 3978  3980     1 
 3978  3981     1 
 3981  3982     1 
 3981  3983     1 
 3981  3984     1 
 3984  3985     1 
 3984  3986     1 
 3984  3987     1 
 3987  3988     1 
 3987  3989     1 
 3987  3990     1 
 3990  3991     1 
 3990  3992     1 
 3990  3993     1 
 3993  3994     1 
 3993  3995     1 
 3993  3996     1 
 3996  3997     1 
 3996  3998     1 
 3996  3999     1 
 3999  4000     1 
 3999  4001     1 
 3999  4002     1 
 4002  4003     1 
 4002  4004     1 
 4002  4005     1 
 4005  4006     1 
 4005  4007     1 
 4005  4008     1 
 4008  4009     1 
 4008  4010     1 
 4008  4011     1 
 4011  4012     1 
 4011  4013     1 
 4011  4014     1 
 4014  4015     1 
 4014  4016     1 
 4014  4017     1 
 4017  4018     1 
 4017  4019     1 
 4017  4020     1 
 4021  4022     1 
 4021  4025     1 
 4021  4029     1 
 4021  4033     1 
 4022  4023     1 
 4022  4024     1 
 4022  4037     1 
 4025  4026     1 
 4025  4027     1 
 4025  4028     1 
 4029  4030     1 
 4029  4031     1 
 4029  4032     1 
 4033  4034     1 
 4033  4035     1 
 4033  4036     1 
 4037  4038     1 
 4037  4039     1 
 4037  4043     1 
 4040  4041     1 
 4040  4042     1 
 4040  4043     1 
 4040  4044     1 
 4044  4045     1 
 4045  4046     1 
 4045  4047     1 
 4045  4048     1 
 4048  4049     1 
 4048  4050     1 
 4048  4056     1 
 4050  4051     1 
 4051  4052     1 
 4051  4053     1 
 4053  4054     1 
 4053  4055     1 
 4053  4065     1 
 4056  4057     1 
 4056  4058     1 
 4056  4059     1 
 4059  4060     1 
 4060  4061     1 
 4060  4062     1 
 4062  4063     1 
 4062  4064     1 
 4062  4112     1 
 4065  4066     1 
 4065  4067     1 
 4065  4068     1 
 4068  4069     1 
 4068  4070     1 
 4068  4071     1 
 4071  4072     1 
 4071  4073     1 
 4071  4074     1 
 4074  4075     1 
 4074  4076     1 
 4074  4077     1 
 4077  4078     1 
 4077  4079     1 
 4077  4080     1 
 4080  4081     1 
 4080  4082     1 
 4080  4083     1 
 4083  4084     1 
 4083  4085     1 
 4085  4086     1 
 4085  4087     1 
 4087  4088     1 
 4087  4089     1 
 4087  4090     1 
 4090  4091     1 
 4090  4092     1 
 4090  4093     1 
 4093  4094     1 
 4093  4095     1 
 4093  4096     1 
 4096  4097     1 
 4096  4098     1 
 4096  4099     1 
 4099  4100     1 
 4099  4101     1 
 4099  4102     1 
 4102  4103     1 
 4102  4104     1 
 4102  4105     1 
 4105  4106     1 
 4105  4107     1 
 4105  4108     1 
 4108  4109     1 
 4108  4110     1 
 4108  4111     1 
 4112  4113     1 
 4112  4114     1 
 4112  4115     1 
 4115  4116     1 
 4115  4117     1 
 4115  4118     1 
 4118  4119     1 
 4118  4120     1 
 4118  4121     1 
 4121  4122     1 
 4121  4123     1 
 4121  4124     1 
 4124  4125     1 
 4124  4126     1 
 4124  4127     1 
 4127  4128     1 
 4127  4129     1 
 4127  4130     1 
 4130  4131     1 
 4130  4132     1 
 4130  4133     1 
 4133  4134     1 
 4133  4135     1 
 4133  4136     1 
 4136  4137     1 
 4136  4138     1 
 4136  4139     1 
 4139  4140     1 
 4139  4141     1 
 4139  4142     1 
 4142  4143     1 
 4142  4144     1 
 4142  4145     1 
 4145  4146     1 
 4145  4147     1 
 4145  4148     1 
 4148  4149     1 
 4148  4150     1 
 4148  4151     1 
 4151  4152     1 
 4151  4153     1 
 4151  4154     1 
 4155  4156     1 
 4155  4159     1 
 4155  4163     1 
 4155  4167     1 
 4156  4157     1 
 4156  4158     1 
 4156  4171     1 
 4159  4160     1 
 4159  4161     1 
 4159  4162     1 
 4163  4164     1 
 4163  4165     1 
 4163  4166     1 
 4167  4168     1 
 4167  4169     1 
 4167  4170     1 
 4171  4172     1 
 4171  4173     1 
 4171  4177     1 
 4174  4175     1 
 4174  4176     1 
 4174  4177     1 
 4174  4178     1 
 4178  4179     1 
 4179  4180     1 
 4179  4181     1 
 4179  4182     1 
 4182  4183     1 
 4182  4184     1 
 4182  4190     1 
 4184  4185     1 
 4185  4186     1 
 4185  4187     1 
 4187  4188     1 
 4187  4189     1 
 4187  4199     1 
 4190  4191     1 
 4190  4192     1 
 4190  4193     1 
 4193  4194     1 
 4194  4195     1 
 4194  4196     1 
 4196  4197     1 
 4196  4198     1 
 4196  4246     1 
 4199  4200     1 
 4199  4201     1 
 4199  4202     1 
 4202  4203     1 
 4202  4204     1 
 4202  4205     1 
 4205  4206     1 
 4205  4207     1 
 4205  4208     1 
 4208  4209     1 
 4208  4210     1 
 4208  4211     1 
 4211  4212     1 
 4211  4213     1 
 4211  4214     1 
 4214  4215     1 
 4214  4216     1 
 4214  4217     1 
 4217  4218     1 
 4217  4219     1 
 4219  4220     1 
 4219  4221     1 
 4221  4222     1 
 4221  4223     1 
 4221  4224     1 
 4224  4225     1 
 4224  4226     1 
 4224  4227     1 
 4227  4228     1 
 4227  4229     1 
 4227  4230     1 
 4230  4231     1 
 4230  4232     1 
 4230  4233     1 
 4233  4234     1 
 4233  4235     1 
 4233  4236     1 
 4236  4237     1 
 4236  4238     1 
 4236  4239     1 
 4239  4240     1 
 4239  4241     1 
 4239  4242     1 
 4242  4243     1 
 4242  4244     1 
 4242  4245     1 
 4246  4247     1 
 4246  4248     1 
 4246  4249     1 
 4249  4250     1 
 4249  4251     1 
 4249  4252     1 
 4252  4253     1 
 4252  4254     1 
 4252  4255     1 
 4255  4256     1 
 4255  4257     1 
 4255  4258     1 
 4258  4259     1 
 4258  4260     1 
 4258  4261     1 
 4261  4262     1 
 4261  4263     1 
 4261  4264     1 
 4264  4265     1 
 4264  4266     1 
 4264  4267     1 
 4267  4268     1 
 4267  4269     1 
 4267  4270     1 
 4270  4271     1 
 4270  4272     1 
 4270  4273     1 
 4273  4274     1 
 4273  4275     1 
 4273  4276     1 
 4276  4277     1 
 4276  4278     1 
 4276  4279     1 
 4279  4280     1 
 4279  4281     1 
 4279  4282     1 
 4282  4283     1 
 4282  4284     1 
 4282  4285     1 
 4285  4286     1 
 4285  4287     1 
 4285  4288     1 
 4289  4290     1 
 4289  4293     1 
 4289  4297     1 
 4289  4301     1 
 4290  4291     1 
 4290  4292     1 
 4290  4305     1 
 4293  4294     1 
 4293  4295     1 
 4293  4296     1 
 4297  4298     1 
 4297  4299     1 
 4297  4300     1 
 4301  4302     1 
 4301  4303     1 
 4301  4304     1 
 4305  4306     1 
 4305  4307     1 
 4305  4311     1 
 4308  4309     1 
 4308  4310     1 
 4308  4311     1 
 4308  4312     1 
 4312  4313     1 
 4313  4314     1 
 4313  4315     1 
 4313  4316     1 
 4316  4317     1 
 4316  4318     1 
 4316  4324     1 
 4318  4319     1 
 4319  4320     1 
 4319  4321     1 
 4321  4322     1 
 4321  4323     1 
 4321  4333     1 
 4324  4325     1 
 4324  4326     1 
 4324  4327     1 
 4327  4328     1 
 4328  4329     1 
 4328  4330     1 
 4330  4331     1 
 4330  4332     1 
 4330  4380     1 
 4333  4334     1 
 4333  4335     1 
 4333  4336     1 
 4336  4337     1 
 4336  4338     1 
 4336  4339     1 
 4339  4340     1 
 4339  4341     1 
 4339  4342     1 
 4342  4343     1 
 4342  4344     1 
 4342  4345     1 
 4345  4346     1 
 4345  4347     1 
 4345  4348     1 
 4348  4349     1 
 4348  4350     1 
 4348  4351     1 
 4351  4352     1 
 4351  4353     1 
 4353  4354     1 
 4353  4355     1 
 4355  4356     1 
 4355  4357     1 
 4355  4358     1 
 4358  4359     1 
 4358  4360     1 
 4358  4361     1 
 4361  4362     1 
 4361  4363     1 
 4361  4364     1 
 4364  4365     1 
 4364  4366     1 
 4364  4367     1 
 4367  4368     1 
 4367  4369     1 
 4367  4370     1 
 4370  4371     1 
 4370  4372     1 
 4370  4373     1 
 4373  4374     1 
 4373  4375     1 
 4373  4376     1 
 4376  4377     1 
 4376  4378     1 
 4376  4379     1 
 4380  4381     1 
 4380  4382     1 
 4380  4383     1 
 4383  4384     1 
 4383  4385     1 
 4383  4386     1 
 4386  4387     1 
 4386  4388     1 
 4386  4389     1 
 4389  4390     1 
 4389  4391     1 
 4389  4392     1 
 4392  4393     1 
 4392  4394     1 
 4392  4395     1 
 4395  4396     1 
 4395  4397     1 
 4395  4398     1 
 4398  4399     1 
 4398  4400     1 
 4398  4401     1 
 4401  4402     1 
 4401  4403     1 
 4401  4404     1 
 4404  4405     1 
 4404  4406     1 
 4404  4407     1 
 4407  4408     1 
 4407  4409     1 
 4407  4410     1 
 4410  4411     1 
 4410  4412     1 
 4410  4413     1 
 4413  4414     1 
 4413  4415     1 
 4413  4416     1 
 4416  4417     1 
 4416  4418     1 
 4416  4419     1 
 4419  4420     1 
 4419  4421     1 
 4419  4422     1 
 4423  4424     1 
 4423  4427     1 
 4423  4431     1 
 4423  4435     1 
 4424  4425     1 
 4424  4426     1 
 4424  4439     1 
 4427  4428     1 
 4427  4429     1 
 4427  4430     1 
 4431  4432     1 
 4431  4433     1 
 4431  4434     1 
 4435  4436     1 
 4435  4437     1 
 4435  4438     1 
 4439  4440     1 
 4439  4441     1 
 4439  4445     1 
 4442  4443     1 
 4442  4444     1 
 4442  4445     1 
 4442  4446     1 
 4446  4447     1 
 4447  4448     1 
 4447  4449     1 
 4447  4450     1 
 4450  4451     1 
 4450  4452     1 
 4450  4458     1 
 4452  4453     1 
 4453  4454     1 
 4453  4455     1 
 4455  4456     1 
 4455  4457     1 
 4455  4467     1 
 4458  4459     1 
 4458  4460     1 
 4458  4461     1 
 4461  4462     1 
 4462  4463     1 
 4462  4464     1 
 4464  4465     1 
 4464  4466     1 
 4464  4514     1 
 4467  4468     1 
 4467  4469     1 
 4467  4470     1 
 4470  4471     1 
 4470  4472     1 
 4470  4473     1 
 4473  4474     1 
 4473  4475     1 
 4473  4476     1 
 4476  4477     1 
 4476  4478     1 
 4476  4479     1 
 4479  4480     1 
 4479  4481     1 
 4479  4482     1 
 4482  4483     1 
 4482  4484     1 
 4482  4485     1 
 4485  4486     1 
 4485  4487     1 
 4487  4488     1 
 4487  4489     1 
 4489  4490     1 
 4489  4491     1 
 4489  4492     1 
 4492  4493     1 
 4492  4494     1 
 4492  4495     1 
 4495  4496     1 
 4495  4497     1 
 4495  4498     1 
 4498  4499     1 
 4498  4500     1 
 4498  4501     1 
 4501  4502     1 
 4501  4503     1 
 4501  4504     1 
 4504  4505     1 
 4504  4506     1 
 4504  4507     1 
 4507  4508     1 
 4507  4509     1 
 4507  4510     1 
 4510  4511     1 
 4510  4512     1 
 4510  4513     1 
 4514  4515     1 
 4514  4516     1 
 4514  4517     1 
 4517  4518     1 
 4517  4519     1 
 4517  4520     1 
 4520  4521     1 
 4520  4522     1 
 4520  4523     1 
 4523  4524     1 
 4523  4525     1 
 4523  4526     1 
 4526  4527     1 
 4526  4528     1 
 4526  4529     1 
 4529  4530     1 
 4529  4531     1 
 4529  4532     1 
 4532  4533     1 
 4532  4534     1 
 4532  4535     1 
 4535  4536     1 
 4535  4537     1 
 4535  4538     1 
 4538  4539     1 
 4538  4540     1 
 4538  4541     1 
 4541  4542     1 
 4541  4543     1 
 4541  4544     1 
 4544  4545     1 
 4544  4546     1 
 4544  4547     1 
 4547  4548     1 
 4547  4549     1 
 4547  4550     1 
 4550  4551     1 
 4550  4552     1 
 4550  4553     1 
 4553  4554     1 
 4553  4555     1 
 4553  4556     1 
 4557  4558     1 
 4557  4561     1 
 4557  4565     1 
 4557  4569     1 
 4558  4559     1 
 4558  4560     1 
 4558  4573     1 
 4561  4562     1 
 4561  4563     1 
 4561  4564     1 
 4565  4566     1 
 4565  4567     1 
 4565  4568     1 
 4569  4570     1 
 4569  4571     1 
 4569  4572     1 
 4573  4574     1 
 4573  4575     1 
 4573  4579     1 
 4576  4577     1 
 4576  4578     1 
 4576  4579     1 
 4576  4580     1 
 4580  4581     1 
 4581  4582     1 
 4581  4583     1 
 4581  4584     1 
 4584  4585     1 
 4584  4586     1 
 4584  4592     1 
 4586  4587     1 
 4587  4588     1 
 4587  4589     1 
 4589  4590     1 
 4589  4591     1 
 4589  4601     1 
 4592  4593     1 
 4592  4594     1 
 4592  4595     1 
 4595  4596     1 
 4596  4597     1 
 4596  4598     1 
 4598  4599     1 
 4598  4600     1 
 4598  4648     1 
 4601  4602     1 
 4601  4603     1 
 4601  4604     1 
 4604  4605     1 
 4604  4606     1 
 4604  4607     1 
 4607  4608     1 
 4607  4609     1 
 4607  4610     1 
 4610  4611     1 
 4610  4612     1 
 4610  4613     1 
 4613  4614     1 
 4613  4615     1 
 4613  4616     1 
 4616  4617     1 
 4616  4618     1 
 4616  4619     1 
 4619  4620     1 
 4619  4621     1 
 4621  4622     1 
 4621  4623     1 
 4623  4624     1 
 4623  4625     1 
 4623  4626     1 
 4626  4627     1 
 4626  4628     1 
 4626  4629     1 
 4629  4630     1 
 4629  4631     1 
 4629  4632     1 
 4632  4633     1 
 4632  4634     1 
 4632  4635     1 
 4635  4636     1 
 4635  4637     1 
 4635  4638     1 
 4638  4639     1 
 4638  4640     1 
 4638  4641     1 
 4641  4642     1 
 4641  4643     1 
 4641  4644     1 
 4644  4645     1 
 4644  4646     1 
 4644  4647     1 
 4648  4649     1 
 4648  4650     1 
 4648  4651     1 
 4651  4652     1 
 4651  4653     1 
 4651  4654     1 
 4654  4655     1 
 4654  4656     1 
 4654  4657     1 
 4657  4658     1 
 4657  4659     1 
 4657  4660     1 
 4660  4661     1 
 4660  4662     1 
 4660  4663     1 
 4663  4664     1 
 4663  4665     1 
 4663  4666     1 
 4666  4667     1 
 4666  4668     1 
 4666  4669     1 
 4669  4670     1 
 4669  4671     1 
 4669  4672     1 
 4672  4673     1 
 4672  4674     1 
 4672  4675     1 
 4675  4676     1 
 4675  4677     1 
 4675  4678     1 
 4678  4679     1 
 4678  4680     1 
 4678  4681     1 
 4681  4682     1 
 4681  4683     1 
 4681  4684     1 
 4684  4685     1 
 4684  4686     1 
 4684  4687     1 
 4687  4688     1 
 4687  4689     1 
 4687  4690     1 
 4691  4692     1 
 4691  4695     1 
 4691  4699     1 
 4691  4703     1 
 4692  4693     1 
 4692  4694     1 
 4692  4707     1 
 4695  4696     1 
 4695  4697     1 
 4695  4698     1 
 4699  4700     1 
 4699  4701     1 
 4699  4702     1 
 4703  4704     1 
 4703  4705     1 
 4703  4706     1 
 4707  4708     1 
 4707  4709     1 
 4707  4713     1 
 4710  4711     1 
 4710  4712     1 
 4710  4713     1 
 4710  4714     1 
 4714  4715     1 
 4715  4716     1 
 4715  4717     1 
 4715  4718     1 
 4718  4719     1 
 4718  4720     1 
 4718  4726     1 
 4720  4721     1 
 4721  4722     1 
 4721  4723     1 
 4723  4724     1 
 4723  4725     1 
 4723  4735     1 
 4726  4727     1 
 4726  4728     1 
 4726  4729     1 
 4729  4730     1 
 4730  4731     1 
 4730  4732     1 
 4732  4733     1 
 4732  4734     1 
 4732  4782     1 
 4735  4736     1 
 4735  4737     1 
 4735  4738     1 
 4738  4739     1 
 4738  4740     1 
 4738  4741     1 
 4741  4742     1 
 4741  4743     1 
 4741  4744     1 
 4744  4745     1 
 4744  4746     1 
 4744  4747     1 
 4747  4748     1 
 4747  4749     1 
 4747  4750     1 
 4750  4751     1 
 4750  4752     1 
 4750  4753     1 
 4753  4754     1 
 4753  4755     1 
 4755  4756     1 
 4755  4757     1 
 4757  4758     1 
 4757  4759     1 
 4757  4760     1 
 4760  4761     1 
 4760  4762     1 
 4760  4763     1 
 4763  4764     1 
 4763  4765     1 
 4763  4766     1 
 4766  4767     1 
 4766  4768     1 
 4766  4769     1 
 4769  4770     1 
 4769  4771     1 
 4769  4772     1 
 4772  4773     1 
 4772  4774     1 
 4772  4775     1 
 4775  4776     1 
 4775  4777     1 
 4775  4778     1 
 4778  4779     1 
 4778  4780     1 
 4778  4781     1 
 4782  4783     1 
 4782  4784     1 
 4782  4785     1 
 4785  4786     1 
 4785  4787     1 
 4785  4788     1 
 4788  4789     1 
 4788  4790     1 
 4788  4791     1 
 4791  4792     1 
 4791  4793     1 
 4791  4794     1 
 4794  4795     1 
 4794  4796     1 
 4794  4797     1 
 4797  4798     1 
 4797  4799     1 
 4797  4800     1 
 4800  4801     1 
 4800  4802     1 
 4800  4803     1 
 4803  4804     1 
 4803  4805     1 
 4803  4806     1 
 4806  4807     1 
 4806  4808     1 
 4806  4809     1 
 4809  4810     1 
 4809  4811     1 
 4809  4812     1 
 4812  4813     1 
 4812  4814     1 
 4812  4815     1 
 4815  4816     1 
 4815  4817     1 
 4815  4818     1 
 4818  4819     1 
 4818  4820     1 
 4818  4821     1 
 4821  4822     1 
 4821  4823     1 
 4821  4824     1 
 4825  4826     1 
 4825  4829     1 
 4825  4833     1 
 4825  4837     1 
 4826  4827     1 
 4826  4828     1 
 4826  4841     1 
 4829  4830     1 
 4829  4831     1 
 4829  4832     1 
 4833  4834     1 
 4833  4835     1 
 4833  4836     1 
 4837  4838     1 
 4837  4839     1 
 4837  4840     1 
 4841  4842     1 
 4841  4843     1 
 4841  4847     1 
 4844  4845     1 
 4844  4846     1 
 4844  4847     1 
 4844  4848     1 
 4848  4849     1 
 4849  4850     1 
 4849  4851     1 
 4849  4852     1 
 4852  4853     1 
 4852  4854     1 
 4852  4860     1 
 4854  4855     1 
 4855  4856     1 
 4855  4857     1 
 4857  4858     1 
 4857  4859     1 
 4857  4869     1 
 4860  4861     1 
 4860  4862     1 
 4860  4863     1 
 4863  4864     1 
 4864  4865     1 
 4864  4866     1 
 4866  4867     1 
 4866  4868     1 
 4866  4916     1 
 4869  4870     1 
 4869  4871     1 
 4869  4872     1 
 4872  4873     1 
 4872  4874     1 
 4872  4875     1 
 4875  4876     1 
 4875  4877     1 
 4875  4878     1 
 4878  4879     1 
 4878  4880     1 
 4878  4881     1 
 4881  4882     1 
 4881  4883     1 
 4881  4884     1 
 4884  4885     1 
 4884  4886     1 
 4884  4887     1 
 4887  4888     1 
 4887  4889     1 
 4889  4890     1 
 4889  4891     1 
 4891  4892     1 
 4891  4893     1 
 4891  4894     1 
 4894  4895     1 
 4894  4896     1 
 4894  4897     1 
 4897  4898     1 
 4897  4899     1 
 4897  4900     1 
 4900  4901     1 
 4900  4902     1 
 4900  4903     1 
 4903  4904     1 
 4903  4905     1 
 4903  4906     1 
 4906  4907     1 
 4906  4908     1 
 4906  4909     1 
 4909  4910     1 
 4909  4911     1 
 4909  4912     1 
 4912  4913     1 
 4912  4914     1 
 4912  4915     1 
 4916  4917     1 
 4916  4918     1 
 4916  4919     1 
 4919  4920     1 
 4919  4921     1 
 4919  4922     1 
 4922  4923     1 
 4922  4924     1 
 4922  4925     1 
 4925  4926     1 
 4925  4927     1 
 4925  4928     1 
 4928  4929     1 
 4928  4930     1 
 4928  4931     1 
 4931  4932     1 
 4931  4933     1 
 4931  4934     1 
 4934  4935     1 
 4934  4936     1 
 4934  4937     1 
 4937  4938     1 
 4937  4939     1 
 4937  4940     1 
 4940  4941     1 
 4940  4942     1 
 4940  4943     1 
 4943  4944     1 
 4943  4945     1 
 4943  4946     1 
 4946  4947     1 
 4946  4948     1 
 4946  4949     1 
 4949  4950     1 
 4949  4951     1 
 4949  4952     1 
 4952  4953     1 
 4952  4954     1 
 4952  4955     1 
 4955  4956     1 
 4955  4957     1 
 4955  4958     1 
 4959  4960     1 
 4959  4963     1 
 4959  4967     1 
 4959  4971     1 
 4960  4961     1 
 4960  4962     1 
 4960  4975     1 
 4963  4964     1 
 4963  4965     1 
 4963  4966     1 
 4967  4968     1 
 4967  4969     1 
 4967  4970     1 
 4971  4972     1 
 4971  4973     1 
 4971  4974     1 
 4975  4976     1 
 4975  4977     1 
 4975  4981     1 
 4978  4979     1 
 4978  4980     1 
 4978  4981     1 
 4978  4982     1 
 4982  4983     1 
 4983  4984     1 
 4983  4985     1 
 4983  4986     1 
 4986  4987     1 
 4986  4988     1 
 4986  4994     1 
 4988  4989     1 
 4989  4990     1 
 4989  4991     1 
 4991  4992     1 
 4991  4993     1 
 4991  5003     1 
 4994  4995     1 
 4994  4996     1 
 4994  4997     1 
 4997  4998     1 
 4998  4999     1 
 4998  5000     1 
 5000  5001     1 
 5000  5002     1 
 5000  5050     1 
 5003  5004     1 
 5003  5005     1 
 5003  5006     1 
 5006  5007     1 
 5006  5008     1 
 5006  5009     1 
 5009  5010     1 
 5009  5011     1 
 5009  5012     1 
 5012  5013     1 
 5012  5014     1 
 5012  5015     1 
 5015  5016     1 
 5015  5017     1 
 5015  5018     1 
 5018  5019     1 
 5018  5020     1 
 5018  5021     1 
 5021  5022     1 
 5021  5023     1 
 5023  5024     1 
 5023  5025     1 
 5025  5026     1 
 5025  5027     1 
 5025  5028     1 
 5028  5029     1 
 5028  5030     1 
 5028  5031     1 
 5031  5032     1 
 5031  5033     1 
 5031  5034     1 
 5034  5035     1 
 5034  5036     1 
 5034  5037     1 
 5037  5038     1 
 5037  5039     1 
 5037  5040     1 
 5040  5041     1 
 5040  5042     1 
 5040  5043     1 
 5043  5044     1 
 5043  5045     1 
 5043  5046     1 
 5046  5047     1 
 5046  5048     1 
 5046  5049     1 
 5050  5051     1 
 5050  5052     1 
 5050  5053     1 
 5053  5054     1 
 5053  5055     1 
 5053  5056     1 
 5056  5057     1 
 5056  5058     1 
 5056  5059     1 
 5059  5060     1 
 5059  5061     1 
 5059  5062     1 
 5062  5063     1 
 5062  5064     1 
 5062  5065     1 
 5065  5066     1 
 5065  5067     1 
 5065  5068     1 
 5068  5069     1 
 5068  5070     1 
 5068  5071     1 
 5071  5072     1 
 5071  5073     1 
 5071  5074     1 
 5074  5075     1 
 5074  5076     1 
 5074  5077     1 
 5077  5078     1 
 5077  5079     1 
 5077  5080     1 
 5080  5081     1 
 5080  5082     1 
 5080  5083     1 
 5083  5084     1 
 5083  5085     1 
 5083  5086     1 
 5086  5087     1 
 5086  5088     1 
 5086  5089     1 
 5089  5090     1 
 5089  5091     1 
 5089  5092     1 
 5093  5094     1 
 5093  5097     1 
 5093  5101     1 
 5093  5105     1 
 5094  5095     1 
 5094  5096     1 
 5094  5109     1 
 5097  5098     1 
 5097  5099     1 
 5097  5100     1 
 5101  5102     1 
 5101  5103     1 
 5101  5104     1 
 5105  5106     1 
 5105  5107     1 
 5105  5108     1 
 5109  5110     1 
 5109  5111     1 
 5109  5115     1 
 5112  5113     1 
 5112  5114     1 
 5112  5115     1 
 5112  5116     1 
 5116  5117     1 
 5117  5118     1 
 5117  5119     1 
 5117  5120     1 
 5120  5121     1 
 5120  5122     1 
 5120  5128     1 
 5122  5123     1 
 5123  5124     1 
 5123  5125     1 
 5125  5126     1 
 5125  5127     1 
 5125  5137     1 
 5128  5129     1 
 5128  5130     1 
 5128  5131     1 
 5131  5132     1 
 5132  5133     1 
 5132  5134     1 
 5134  5135     1 
 5134  5136     1 
 5134  5184     1 
 5137  5138     1 
 5137  5139     1 
 5137  5140     1 
 5140  5141     1 
 5140  5142     1 
 5140  5143     1 
 5143  5144     1 
 5143  5145     1 
 5143  5146     1 
 5146  5147     1 
 5146  5148     1 
 5146  5149     1 
 5149  5150     1 
 5149  5151     1 
 5149  5152     1 
 5152  5153     1 
 5152  5154     1 
 5152  5155     1 
 5155  5156     1 
 5155  5157     1 
 5157  5158     1 
 5157  5159     1 
 5159  5160     1 
 5159  5161     1 
 5159  5162     1 
 5162  5163     1 
 5162  5164     1 
 5162  5165     1 
 5165  5166     1 
 5165  5167     1 
 5165  5168     1 
 5168  5169     1 
 5168  5170     1 
 5168  5171     1 
 5171  5172     1 
 5171  5173     1 
 5171  5174     1 
 5174  5175     1 
 5174  5176     1 
 5174  5177     1 
 5177  5178     1 
 5177  5179     1 
 5177  5180     1 
 5180  5181     1 
 5180  5182     1 
 5180  5183     1 
 5184  5185     1 
 5184  5186     1 
 5184  5187     1 
 5187  5188     1 
 5187  5189     1 
 5187  5190     1 
 5190  5191     1 
 5190  5192     1 
 5190  5193     1 
 5193  5194     1 
 5193  5195     1 
 5193  5196     1 
 5196  5197     1 
 5196  5198     1 
 5196  5199     1 
 5199  5200     1 
 5199  5201     1 
 5199  5202     1 
 5202  5203     1 
 5202  5204     1 
 5202  5205     1 
 5205  5206     1 
 5205  5207     1 
 5205  5208     1 
 5208  5209     1 
 5208  5210     1 
 5208  5211     1 
 5211  5212     1 
 5211  5213     1 
 5211  5214     1 
 5214  5215     1 
 5214  5216     1 
 5214  5217     1 
 5217  5218     1 
 5217  5219     1 
 5217  5220     1 
 5220  5221     1 
 5220  5222     1 
 5220  5223     1 
 5223  5224     1 
 5223  5225     1 
 5223  5226     1 
 5227  5228     1 
 5227  5231     1 
 5227  5235     1 
 5227  5239     1 
 5228  5229     1 
 5228  5230     1 
 5228  5243     1 
 5231  5232     1 
 5231  5233     1 
 5231  5234     1 
 5235  5236     1 
 5235  5237     1 
 5235  5238     1 
 5239  5240     1 
 5239  5241     1 
 5239  5242     1 
 5243  5244     1 
 5243  5245     1 
 5243  5249     1 
 5246  5247     1 
 5246  5248     1 
 5246  5249     1 
 5246  5250     1 
 5250  5251     1 
 5251  5252     1 
 5251  5253     1 
 5251  5254     1 
 5254  5255     1 
 5254  5256     1 
 5254  5262     1 
 5256  5257     1 
 5257  5258     1 
 5257  5259     1 
 5259  5260     1 
 5259  5261     1 
 5259  5271     1 
 5262  5263     1 
 5262  5264     1 
 5262  5265     1 
 5265  5266     1 
 5266  5267     1 
 5266  5268     1 
 5268  5269     1 
 5268  5270     1 
 5268  5318     1 
 5271  5272     1 
 5271  5273     1 
 5271  5274     1 
 5274  5275     1 
 5274  5276     1 
 5274  5277     1 
 5277  5278     1 
 5277  5279     1 
 5277  5280     1 
 5280  5281     1 
 5280  5282     1 
 5280  5283     1 
 5283  5284     1 
 5283  5285     1 
 5283  5286     1 
 5286  5287     1 
 5286  5288     1 
 5286  5289     1 
 5289  5290     1 
 5289  5291     1 
 5291  5292     1 
 5291  5293     1 
 5293  5294     1 
 5293  5295     1 
 5293  5296     1 
 5296  5297     1 
 5296  5298     1 
 5296  5299     1 
 5299  5300     1 
 5299  5301     1 
 5299  5302     1 
 5302  5303     1 
 5302  5304     1 
 5302  5305     1 
 5305  5306     1 
 5305  5307     1 
 5305  5308     1 
 5308  5309     1 
 5308  5310     1 
 5308  5311     1 
 5311  5312     1 
 5311  5313     1 
 5311  5314     1 
 5314  5315     1 
 5314  5316     1 
 5314  5317     1 
 5318  5319     1 
 5318  5320     1 
 5318  5321     1 
 5321  5322     1 
 5321  5323     1 
 5321  5324     1 
 5324  5325     1 
 5324  5326     1 
 5324  5327     1 
 5327  5328     1 
 5327  5329     1 
 5327  5330     1 
 5330  5331     1 
 5330  5332     1 
 5330  5333     1 
 5333  5334     1 
 5333  5335     1 
 5333  5336     1 
 5336  5337     1 
 5336  5338     1 
 5336  5339     1 
 5339  5340     1 
 5339  5341     1 
 5339  5342     1 
 5342  5343     1 
 5342  5344     1 
 5342  5345     1 
 5345  5346     1 
 5345  5347     1 
 5345  5348     1 
 5348  5349     1 
 5348  5350     1 
 5348  5351     1 
 5351  5352     1 
 5351  5353     1 
 5351  5354     1 
 5354  5355     1 
 5354  5356     1 
 5354  5357     1 
 5357  5358     1 
 5357  5359     1 
 5357  5360     1 
 5361  5362     1 
 5361  5365     1 
 5361  5369     1 
 5361  5373     1 
 5362  5363     1 
 5362  5364     1 
 5362  5377     1 
 5365  5366     1 
 5365  5367     1 
 5365  5368     1 
 5369  5370     1 
 5369  5371     1 
 5369  5372     1 
 5373  5374     1 
 5373  5375     1 
 5373  5376     1 
 5377  5378     1 
 5377  5379     1 
 5377  5383     1 
 5380  5381     1 
 5380  5382     1 
 5380  5383     1 
 5380  5384     1 
 5384  5385     1 
 5385  5386     1 
 5385  5387     1 
 5385  5388     1 
 5388  5389     1 
 5388  5390     1 
 5388  5396     1 
 5390  5391     1 
 5391  5392     1 
 5391  5393     1 
 5393  5394     1 
 5393  5395     1 
 5393  5405     1 
 5396  5397     1 
 5396  5398     1 
 5396  5399     1 
 5399  5400     1 
 5400  5401     1 
 5400  5402     1 
 5402  5403     1 
 5402  5404     1 
 5402  5452     1 
 5405  5406     1 
 5405  5407     1 
 5405  5408     1 
 5408  5409     1 
 5408  5410     1 
 5408  5411     1 
 5411  5412     1 
 5411  5413     1 
 5411  5414     1 
 5414  5415     1 
 5414  5416     1 
 5414  5417     1 
 5417  5418     1 
 5417  5419     1 
 5417  5420     1 
 5420  5421     1 
 5420  5422     1 
 5420  5423     1 
 5423  5424     1 
 5423  5425     1 
 5425  5426     1 
 5425  5427     1 
 5427  5428     1 
 5427  5429     1 
 5427  5430     1 
 5430  5431     1 
 5430  5432     1 
 5430  5433     1 
 5433  5434     1 
 5433  5435     1 
 5433  5436     1 
 5436  5437     1 
 5436  5438     1 
 5436  5439     1 
 5439  5440     1 
 5439  5441     1 
 5439  5442     1 
 5442  5443     1 
 5442  5444     1 
 5442  5445     1 
 5445  5446     1 
 5445  5447     1 
 5445  5448     1 
 5448  5449     1 
 5448  5450     1 
 5448  5451     1 
 5452  5453     1 
 5452  5454     1 
 5452  5455     1 
 5455  5456     1 
 5455  5457     1 
 5455  5458     1 
 5458  5459     1 
 5458  5460     1 
 5458  5461     1 
 5461  5462     1 
 5461  5463     1 
 5461  5464     1 
 5464  5465     1 
 5464  5466     1 
 5464  5467     1 
 5467  5468     1 
 5467  5469     1 
 5467  5470     1 
 5470  5471     1 
 5470  5472     1 
 5470  5473     1 
 5473  5474     1 
 5473  5475     1 
 5473  5476     1 
 5476  5477     1 
 5476  5478     1 
 5476  5479     1 
 5479  5480     1 
 5479  5481     1 
 5479  5482     1 
 5482  5483     1 
 5482  5484     1 
 5482  5485     1 
 5485  5486     1 
 5485  5487     1 
 5485  5488     1 
 5488  5489     1 
 5488  5490     1 
 5488  5491     1 
 5491  5492     1 
 5491  5493     1 
 5491  5494     1 
 5495  5496     1 
 5495  5499     1 
 5495  5503     1 
 5495  5507     1 
 5496  5497     1 
 5496  5498     1 
 5496  5511     1 
 5499  5500     1 
 5499  5501     1 
 5499  5502     1 
 5503  5504     1 
 5503  5505     1 
 5503  5506     1 
 5507  5508     1 
 5507  5509     1 
 5507  5510     1 
 5511  5512     1 
 5511  5513     1 
 5511  5517     1 
 5514  5515     1 
 5514  5516     1 
 5514  5517     1 
 5514  5518     1 
 5518  5519     1 
 5519  5520     1 
 5519  5521     1 
 5519  5522     1 
 5522  5523     1 
 5522  5524     1 
 5522  5530     1 
 5524  5525     1 
 5525  5526     1 
 5525  5527     1 
 5527  5528     1 
 5527  5529     1 
 5527  5539     1 
 5530  5531     1 
 5530  5532     1 
 5530  5533     1 
 5533  5534     1 
 5534  5535     1 
 5534  5536     1 
 5536  5537     1 
 5536  5538     1 
 5536  5586     1 
 5539  5540     1 
 5539  5541     1 
 5539  5542     1 
 5542  5543     1 
 5542  5544     1 
 5542  5545     1 
 5545  5546     1 
 5545  5547     1 
 5545  5548     1 
 5548  5549     1 
 5548  5550     1 
 5548  5551     1 
 5551  5552     1 
 5551  5553     1 
 5551  5554     1 
 5554  5555     1 
 5554  5556     1 
 5554  5557     1 
 5557  5558     1 
 5557  5559     1 
 5559  5560     1 
 5559  5561     1 
 5561  5562     1 
 5561  5563     1 
 5561  5564     1 
 5564  5565     1 
 5564  5566     1 
 5564  5567     1 
 5567  5568     1 
 5567  5569     1 
 5567  5570     1 
 5570  5571     1 
 5570  5572     1 
 5570  5573     1 
 5573  5574     1 
 5573  5575     1 
 5573  5576     1 
 5576  5577     1 
 5576  5578     1 
 5576  5579     1 
 5579  5580     1 
 5579  5581     1 
 5579  5582     1 
 5582  5583     1 
 5582  5584     1 
 5582  5585     1 
 5586  5587     1 
 5586  5588     1 
 5586  5589     1 
 5589  5590     1 
 5589  5591     1 
 5589  5592     1 
 5592  5593     1 
 5592  5594     1 
 5592  5595     1 
 5595  5596     1 
 5595  5597     1 
 5595  5598     1 
 5598  5599     1 
 5598  5600     1 
 5598  5601     1 
 5601  5602     1 
 5601  5603     1 
 5601  5604     1 
 5604  5605     1 
 5604  5606     1 
 5604  5607     1 
 5607  5608     1 
 5607  5609     1 
 5607  5610     1 
 5610  5611     1 
 5610  5612     1 
 5610  5613     1 
 5613  5614     1 
 5613  5615     1 
 5613  5616     1 
 5616  5617     1 
 5616  5618     1 
 5616  5619     1 
 5619  5620     1 
 5619  5621     1 
 5619  5622     1 
 5622  5623     1 
 5622  5624     1 
 5622  5625     1 
 5625  5626     1 
 5625  5627     1 
 5625  5628     1 
 5629  5630     1 
 5629  5633     1 
 5629  5637     1 
 5629  5641     1 
 5630  5631     1 
 5630  5632     1 
 5630  5645     1 
 5633  5634     1 
 5633  5635     1 
 5633  5636     1 
 5637  5638     1 
 5637  5639     1 
 5637  5640     1 
 5641  5642     1 
 5641  5643     1 
 5641  5644     1 
 5645  5646     1 
 5645  5647     1 
 5645  5651     1 
 5648  5649     1 
 5648  5650     1 
 5648  5651     1 
 5648  5652     1 
 5652  5653     1 
 5653  5654     1 
 5653  5655     1 
 5653  5656     1 
 5656  5657     1 
 5656  5658     1 
 5656  5664     1 
 5658  5659     1 
 5659  5660     1 
 5659  5661     1 
 5661  5662     1 
 5661  5663     1 
 5661  5673     1 
 5664  5665     1 
 5664  5666     1 
 5664  5667     1 
 5667  5668     1 
 5668  5669     1 
 5668  5670     1 
 5670  5671     1 
 5670  5672     1 
 5670  5720     1 
 5673  5674     1 
 5673  5675     1 
 5673  5676     1 
 5676  5677     1 
 5676  5678     1 
 5676  5679     1 
 5679  5680     1 
 5679  5681     1 
 5679  5682     1 
 5682  5683     1 
 5682  5684     1 
 5682  5685     1 
 5685  5686     1 
 5685  5687     1 
 5685  5688     1 
 5688  5689     1 
 5688  5690     1 
 5688  5691     1 
 5691  5692     1 
 5691  5693     1 
 5693  5694     1 
 5693  5695     1 
 5695  5696     1 
 5695  5697     1 
 5695  5698     1 
 5698  5699     1 
 5698  5700     1 
 5698  5701     1 
 5701  5702     1 
 5701  5703     1 
 5701  5704     1 
 5704  5705     1 
 5704  5706     1 
 5704  5707     1 
 5707  5708     1 
 5707  5709     1 
 5707  5710     1 
 5710  5711     1 
 5710  5712     1 
 5710  5713     1 
 5713  5714     1 
 5713  5715     1 
 5713  5716     1 
 5716  5717     1 
 5716  5718     1 
 5716  5719     1 
 5720  5721     1 
 5720  5722     1 
 5720  5723     1 
 5723  5724     1 
 5723  5725     1 
 5723  5726     1 
 5726  5727     1 
 5726  5728     1 
 5726  5729     1 
 5729  5730     1 
 5729  5731     1 
 5729  5732     1 
 5732  5733     1 
 5732  5734     1 
 5732  5735     1 
 5735  5736     1 
 5735  5737     1 
 5735  5738     1 
 5738  5739     1 
 5738  5740     1 
 5738  5741     1 
 5741  5742     1 
 5741  5743     1 
 5741  5744     1 
 5744  5745     1 
 5744  5746     1 
 5744  5747     1 
 5747  5748     1 
 5747  5749     1 
 5747  5750     1 
 5750  5751     1 
 5750  5752     1 
 5750  5753     1 
 5753  5754     1 
 5753  5755     1 
 5753  5756     1 
 5756  5757     1 
 5756  5758     1 
 5756  5759     1 
 5759  5760     1 
 5759  5761     1 
 5759  5762     1 
 5763  5764     1 
 5763  5767     1 
 5763  5771     1 
 5763  5775     1 
 5764  5765     1 
 5764  5766     1 
 5764  5779     1 
 5767  5768     1 
 5767  5769     1 
 5767  5770     1 
 5771  5772     1 
 5771  5773     1 
 5771  5774     1 
 5775  5776     1 
 5775  5777     1 
 5775  5778     1 
 5779  5780     1 
 5779  5781     1 
 5779  5785     1 
 5782  5783     1 
 5782  5784     1 
 5782  5785     1 
 5782  5786     1 
 5786  5787     1 
 5787  5788     1 
 5787  5789     1 
 5787  5790     1 
 5790  5791     1 
 5790  5792     1 
 5790  5798     1 
 5792  5793     1 
 5793  5794     1 
 5793  5795     1 
 5795  5796     1 
 5795  5797     1 
 5795  5807     1 
 5798  5799     1 
 5798  5800     1 
 5798  5801     1 
 5801  5802     1 
 5802  5803     1 
 5802  5804     1 
 5804  5805     1 
 5804  5806     1 
 5804  5854     1 
 5807  5808     1 
 5807  5809     1 
 5807  5810     1 
 5810  5811     1 
 5810  5812     1 
 5810  5813     1 
 5813  5814     1 
 5813  5815     1 
 5813  5816     1 
 5816  5817     1 
 5816  5818     1 
 5816  5819     1 
 5819  5820     1 
 5819  5821     1 
 5819  5822     1 
 5822  5823     1 
 5822  5824     1 
 5822  5825     1 
 5825  5826     1 
 5825  5827     1 
 5827  5828     1 
 5827  5829     1 
 5829  5830     1 
 5829  5831     1 
 5829  5832     1 
 5832  5833     1 
 5832  5834     1 
 5832  5835     1 
 5835  5836     1 
 5835  5837     1 
 5835  5838     1 
 5838  5839     1 
 5838  5840     1 
 5838  5841     1 
 5841  5842     1 
 5841  5843     1 
 5841  5844     1 
 5844  5845     1 
 5844  5846     1 
 5844  5847     1 
 5847  5848     1 
 5847  5849     1 
 5847  5850     1 
 5850  5851     1 
 5850  5852     1 
 5850  5853     1 
 5854  5855     1 
 5854  5856     1 
 5854  5857     1 
 5857  5858     1 
 5857  5859     1 
 5857  5860     1 
 5860  5861     1 
 5860  5862     1 
 5860  5863     1 
 5863  5864     1 
 5863  5865     1 
 5863  5866     1 
 5866  5867     1 
 5866  5868     1 
 5866  5869     1 
 5869  5870     1 
 5869  5871     1 
 5869  5872     1 
 5872  5873     1 
 5872  5874     1 
 5872  5875     1 
 5875  5876     1 
 5875  5877     1 
 5875  5878     1 
 5878  5879     1 
 5878  5880     1 
 5878  5881     1 
 5881  5882     1 
 5881  5883     1 
 5881  5884     1 
 5884  5885     1 
 5884  5886     1 
 5884  5887     1 
 5887  5888     1 
 5887  5889     1 
 5887  5890     1 
 5890  5891     1 
 5890  5892     1 
 5890  5893     1 
 5893  5894     1 
 5893  5895     1 
 5893  5896     1 
 5897  5898     1 
 5897  5901     1 
 5897  5905     1 
 5897  5909     1 
 5898  5899     1 
 5898  5900     1 
 5898  5913     1 
 5901  5902     1 
 5901  5903     1 
 5901  5904     1 
 5905  5906     1 
 5905  5907     1 
 5905  5908     1 
 5909  5910     1 
 5909  5911     1 
 5909  5912     1 
 5913  5914     1 
 5913  5915     1 
 5913  5919     1 
 5916  5917     1 
 5916  5918     1 
 5916  5919     1 
 5916  5920     1 
 5920  5921     1 
 5921  5922     1 
 5921  5923     1 
 5921  5924     1 
 5924  5925     1 
 5924  5926     1 
 5924  5932     1 
 5926  5927     1 
 5927  5928     1 
 5927  5929     1 
 5929  5930     1 
 5929  5931     1 
 5929  5941     1 
 5932  5933     1 
 5932  5934     1 
 5932  5935     1 
 5935  5936     1 
 5936  5937     1 
 5936  5938     1 
 5938  5939     1 
 5938  5940     1 
 5938  5988     1 
 5941  5942     1 
 5941  5943     1 
 5941  5944     1 
 5944  5945     1 
 5944  5946     1 
 5944  5947     1 
 5947  5948     1 
 5947  5949     1 
 5947  5950     1 
 5950  5951     1 
 5950  5952     1 
 5950  5953     1 
 5953  5954     1 
 5953  5955     1 
 5953  5956     1 
 5956  5957     1 
 5956  5958     1 
 5956  5959     1 
 5959  5960     1 
 5959  5961     1 
 5961  5962     1 
 5961  5963     1 
 5963  5964     1 
 5963  5965     1 
 5963  5966     1 
 5966  5967     1 
 5966  5968     1 
 5966  5969     1 
 5969  5970     1 
 5969  5971     1 
 5969  5972     1 
 5972  5973     1 
 5972  5974     1 
 5972  5975     1 
 5975  5976     1 
 5975  5977     1 
 5975  5978     1 
 5978  5979     1 
 5978  5980     1 
 5978  5981     1 
 5981  5982     1 
 5981  5983     1 
 5981  5984     1 
 5984  5985     1 
 5984  5986     1 
 5984  5987     1 
 5988  5989     1 
 5988  5990     1 
 5988  5991     1 
 5991  5992     1 
 5991  5993     1 
 5991  5994     1 
 5994  5995     1 
 5994  5996     1 
 5994  5997     1 
 5997  5998     1 
 5997  5999     1 
 5997  6000     1 
 6000  6001     1 
 6000  6002     1 
 6000  6003     1 
 6003  6004     1 
 6003  6005     1 
 6003  6006     1 
 6006  6007     1 
 6006  6008     1 
 6006  6009     1 
 6009  6010     1 
 6009  6011     1 
 6009  6012     1 
 6012  6013     1 
 6012  6014     1 
 6012  6015     1 
 6015  6016     1 
 6015  6017     1 
 6015  6018     1 
 6018  6019     1 
 6018  6020     1 
 6018  6021     1 
 6021  6022     1 
 6021  6023     1 
 6021  6024     1 
 6024  6025     1 
 6024  6026     1 
 6024  6027     1 
 6027  6028     1 
 6027  6029     1 
 6027  6030     1 
 6031  6032     1 
 6031  6035     1 
 6031  6039     1 
 6031  6043     1 
 6032  6033     1 
 6032  6034     1 
 6032  6047     1 
 6035  6036     1 
 6035  6037     1 
 6035  6038     1 
 6039  6040     1 
 6039  6041     1 
 6039  6042     1 
 6043  6044     1 
 6043  6045     1 
 6043  6046     1 
 6047  6048     1 
 6047  6049     1 
 6047  6053     1 
 6050  6051     1 
 6050  6052     1 
 6050  6053     1 
 6050  6054     1 
 6054  6055     1 
 6055  6056     1 
 6055  6057     1 
 6055  6058     1 
 6058  6059     1 
 6058  6060     1 
 6058  6066     1 
 6060  6061     1 
 6061  6062     1 
 6061  6063     1 
 6063  6064     1 
 6063  6065     1 
 6063  6075     1 
 6066  6067     1 
 6066  6068     1 
 6066  6069     1 
 6069  6070     1 
 6070  6071     1 
 6070  6072     1 
 6072  6073     1 
 6072  6074     1 
 6072  6122     1 
 6075  6076     1 
 6075  6077     1 
 6075  6078     1 
 6078  6079     1 
 6078  6080     1 
 6078  6081     1 
 6081  6082     1 
 6081  6083     1 
 6081  6084     1 
 6084  6085     1 
 6084  6086     1 
 6084  6087     1 
 6087  6088     1 
 6087  6089     1 
 6087  6090     1 
 6090  6091     1 
 6090  6092     1 
 6090  6093     1 
 6093  6094     1 
 6093  6095     1 
 6095  6096     1 
 6095  6097     1 
 6097  6098     1 
 6097  6099     1 
 6097  6100     1 
 6100  6101     1 
 6100  6102     1 
 6100  6103     1 
 6103  6104     1 
 6103  6105     1 
 6103  6106     1 
 6106  6107     1 
 6106  6108     1 
 6106  6109     1 
 6109  6110     1 
 6109  6111     1 
 6109  6112     1 
 6112  6113     1 
 6112  6114     1 
 6112  6115     1 
 6115  6116     1 
 6115  6117     1 
 6115  6118     1 
 6118  6119     1 
 6118  6120     1 
 6118  6121     1 
 6122  6123     1 
 6122  6124     1 
 6122  6125     1 
 6125  6126     1 
 6125  6127     1 
 6125  6128     1 
 6128  6129     1 
 6128  6130     1 
 6128  6131     1 
 6131  6132     1 
 6131  6133     1 
 6131  6134     1 
 6134  6135     1 
 6134  6136     1 
 6134  6137     1 
 6137  6138     1 
 6137  6139     1 
 6137  6140     1 
 6140  6141     1 
 6140  6142     1 
 6140  6143     1 
 6143  6144     1 
 6143  6145     1 
 6143  6146     1 
 6146  6147     1 
 6146  6148     1 
 6146  6149     1 
 6149  6150     1 
 6149  6151     1 
 6149  6152     1 
 6152  6153     1 
 6152  6154     1 
 6152  6155     1 
 6155  6156     1 
 6155  6157     1 
 6155  6158     1 
 6158  6159     1 
 6158  6160     1 
 6158  6161     1 
 6161  6162     1 
 6161  6163     1 
 6161  6164     1 
 6165  6166     1 
 6165  6169     1 
 6165  6173     1 
 6165  6177     1 
 6166  6167     1 
 6166  6168     1 
 6166  6181     1 
 6169  6170     1 
 6169  6171     1 
 6169  6172     1 
 6173  6174     1 
 6173  6175     1 
 6173  6176     1 
 6177  6178     1 
 6177  6179     1 
 6177  6180     1 
 6181  6182     1 
 6181  6183     1 
 6181  6187     1 
 6184  6185     1 
 6184  6186     1 
 6184  6187     1 
 6184  6188     1 
 6188  6189     1 
 6189  6190     1 
 6189  6191     1 
 6189  6192     1 
 6192  6193     1 
 6192  6194     1 
 6192  6200     1 
 6194  6195     1 
 6195  6196     1 
 6195  6197     1 
 6197  6198     1 
 6197  6199     1 
 6197  6209     1 
 6200  6201     1 
 6200  6202     1 
 6200  6203     1 
 6203  6204     1 
 6204  6205     1 
 6204  6206     1 
 6206  6207     1 
 6206  6208     1 
 6206  6256     1 
 6209  6210     1 
 6209  6211     1 
 6209  6212     1 
 6212  6213     1 
 6212  6214     1 
 6212  6215     1 
 6215  6216     1 
 6215  6217     1 
 6215  6218     1 
 6218  6219     1 
 6218  6220     1 
 6218  6221     1 
 6221  6222     1 
 6221  6223     1 
 6221  6224     1 
 6224  6225     1 
 6224  6226     1 
 6224  6227     1 
 6227  6228     1 
 6227  6229     1 
 6229  6230     1 
 6229  6231     1 
 6231  6232     1 
 6231  6233     1 
 6231  6234     1 
 6234  6235     1 
 6234  6236     1 
 6234  6237     1 
 6237  6238     1 
 6237  6239     1 
 6237  6240     1 
 6240  6241     1 
 6240  6242     1 
 6240  6243     1 
 6243  6244     1 
 6243  6245     1 
 6243  6246     1 
 6246  6247     1 
 6246  6248     1 
 6246  6249     1 
 6249  6250     1 
 6249  6251     1 
 6249  6252     1 
 6252  6253     1 
 6252  6254     1 
 6252  6255     1 
 6256  6257     1 
 6256  6258     1 
 6256  6259     1 
 6259  6260     1 
 6259  6261     1 
 6259  6262     1 
 6262  6263     1 
 6262  6264     1 
 6262  6265     1 
 6265  6266     1 
 6265  6267     1 
 6265  6268     1 
 6268  6269     1 
 6268  6270     1 
 6268  6271     1 
 6271  6272     1 
 6271  6273     1 
 6271  6274     1 
 6274  6275     1 
 6274  6276     1 
 6274  6277     1 
 6277  6278     1 
 6277  6279     1 
 6277  6280     1 
 6280  6281     1 
 6280  6282     1 
 6280  6283     1 
 6283  6284     1 
 6283  6285     1 
 6283  6286     1 
 6286  6287     1 
 6286  6288     1 
 6286  6289     1 
 6289  6290     1 
 6289  6291     1 
 6289  6292     1 
 6292  6293     1 
 6292  6294     1 
 6292  6295     1 
 6295  6296     1 
 6295  6297     1 
 6295  6298     1 
 6299  6300     1 
 6299  6303     1 
 6299  6307     1 
 6299  6311     1 
 6300  6301     1 
 6300  6302     1 
 6300  6315     1 
 6303  6304     1 
 6303  6305     1 
 6303  6306     1 
 6307  6308     1 
 6307  6309     1 
 6307  6310     1 
 6311  6312     1 
 6311  6313     1 
 6311  6314     1 
 6315  6316     1 
 6315  6317     1 
 6315  6321     1 
 6318  6319     1 
 6318  6320     1 
 6318  6321     1 
 6318  6322     1 
 6322  6323     1 
 6323  6324     1 
 6323  6325     1 
 6323  6326     1 
 6326  6327     1 
 6326  6328     1 
 6326  6334     1 
 6328  6329     1 
 6329  6330     1 
 6329  6331     1 
 6331  6332     1 
 6331  6333     1 
 6331  6343     1 
 6334  6335     1 
 6334  6336     1 
 6334  6337     1 
 6337  6338     1 
 6338  6339     1 
 6338  6340     1 
 6340  6341     1 
 6340  6342     1 
 6340  6390     1 
 6343  6344     1 
 6343  6345     1 
 6343  6346     1 
 6346  6347     1 
 6346  6348     1 
 6346  6349     1 
 6349  6350     1 
 6349  6351     1 
 6349  6352     1 
 6352  6353     1 
 6352  6354     1 
 6352  6355     1 
 6355  6356     1 
 6355  6357     1 
 6355  6358     1 
 6358  6359     1 
 6358  6360     1 
 6358  6361     1 
 6361  6362     1 
 6361  6363     1 
 6363  6364     1 
 6363  6365     1 
 6365  6366     1 
 6365  6367     1 
 6365  6368     1 
 6368  6369     1 
 6368  6370     1 
 6368  6371     1 
 6371  6372     1 
 6371  6373     1 
 6371  6374     1 
 6374  6375     1 
 6374  6376     1 
 6374  6377     1 
 6377  6378     1 
 6377  6379     1 
 6377  6380     1 
 6380  6381     1 
 6380  6382     1 
 6380  6383     1 
 6383  6384     1 
 6383  6385     1 
 6383  6386     1 
 6386  6387     1 
 6386  6388     1 
 6386  6389     1 
 6390  6391     1 
 6390  6392     1 
 6390  6393     1 
 6393  6394     1 
 6393  6395     1 
 6393  6396     1 
 6396  6397     1 
 6396  6398     1 
 6396  6399     1 
 6399  6400     1 
 6399  6401     1 
 6399  6402     1 
 6402  6403     1 
 6402  6404     1 
 6402  6405     1 
 6405  6406     1 
 6405  6407     1 
 6405  6408     1 
 6408  6409     1 
 6408  6410     1 
 6408  6411     1 
 6411  6412     1 
 6411  6413     1 
 6411  6414     1 
 6414  6415     1 
 6414  6416     1 
 6414  6417     1 
 6417  6418     1 
 6417  6419     1 
 6417  6420     1 
 6420  6421     1 
 6420  6422     1 
 6420  6423     1 
 6423  6424     1 
 6423  6425     1 
 6423  6426     1 
 6426  6427     1 
 6426  6428     1 
 6426  6429     1 
 6429  6430     1 
 6429  6431     1 
 6429  6432     1 
 6433  6434     1 
 6433  6437     1 
 6433  6441     1 
 6433  6445     1 
 6434  6435     1 
 6434  6436     1 
 6434  6449     1 
 6437  6438     1 
 6437  6439     1 
 6437  6440     1 
 6441  6442     1 
 6441  6443     1 
 6441  6444     1 
 6445  6446     1 
 6445  6447     1 
 6445  6448     1 
 6449  6450     1 
 6449  6451     1 
 6449  6455     1 
 6452  6453     1 
 6452  6454     1 
 6452  6455     1 
 6452  6456     1 
 6456  6457     1 
 6457  6458     1 
 6457  6459     1 
 6457  6460     1 
 6460  6461     1 
 6460  6462     1 
 6460  6468     1 
 6462  6463     1 
 6463  6464     1 
 6463  6465     1 
 6465  6466     1 
 6465  6467     1 
 6465  6477     1 
 6468  6469     1 
 6468  6470     1 
 6468  6471     1 
 6471  6472     1 
 6472  6473     1 
 6472  6474     1 
 6474  6475     1 
 6474  6476     1 
 6474  6524     1 
 6477  6478     1 
 6477  6479     1 
 6477  6480     1 
 6480  6481     1 
 6480  6482     1 
 6480  6483     1 
 6483  6484     1 
 6483  6485     1 
 6483  6486     1 
 6486  6487     1 
 6486  6488     1 
 6486  6489     1 
 6489  6490     1 
 6489  6491     1 
 6489  6492     1 
 6492  6493     1 
 6492  6494     1 
 6492  6495     1 
 6495  6496     1 
 6495  6497     1 
 6497  6498     1 
 6497  6499     1 
 6499  6500     1 
 6499  6501     1 
 6499  6502     1 
 6502  6503     1 
 6502  6504     1 
 6502  6505     1 
 6505  6506     1 
 6505  6507     1 
 6505  6508     1 
 6508  6509     1 
 6508  6510     1 
 6508  6511     1 
 6511  6512     1 
 6511  6513     1 
 6511  6514     1 
 6514  6515     1 
 6514  6516     1 
 6514  6517     1 
 6517  6518     1 
 6517  6519     1 
 6517  6520     1 
 6520  6521     1 
 6520  6522     1 
 6520  6523     1 
 6524  6525     1 
 6524  6526     1 
 6524  6527     1 
 6527  6528     1 
 6527  6529     1 
 6527  6530     1 
 6530  6531     1 
 6530  6532     1 
 6530  6533     1 
 6533  6534     1 
 6533  6535     1 
 6533  6536     1 
 6536  6537     1 
 6536  6538     1 
 6536  6539     1 
 6539  6540     1 
 6539  6541     1 
 6539  6542     1 
 6542  6543     1 
 6542  6544     1 
 6542  6545     1 
 6545  6546     1 
 6545  6547     1 
 6545  6548     1 
 6548  6549     1 
 6548  6550     1 
 6548  6551     1 
 6551  6552     1 
 6551  6553     1 
 6551  6554     1 
 6554  6555     1 
 6554  6556     1 
 6554  6557     1 
 6557  6558     1 
 6557  6559     1 
 6557  6560     1 
 6560  6561     1 
 6560  6562     1 
 6560  6563     1 
 6563  6564     1 
 6563  6565     1 
 6563  6566     1 
 6567  6568     1 
 6567  6571     1 
 6567  6575     1 
 6567  6579     1 
 6568  6569     1 
 6568  6570     1 
 6568  6583     1 
 6571  6572     1 
 6571  6573     1 
 6571  6574     1 
 6575  6576     1 
 6575  6577     1 
 6575  6578     1 
 6579  6580     1 
 6579  6581     1 
 6579  6582     1 
 6583  6584     1 
 6583  6585     1 
 6583  6589     1 
 6586  6587     1 
 6586  6588     1 
 6586  6589     1 
 6586  6590     1 
 6590  6591     1 
 6591  6592     1 
 6591  6593     1 
 6591  6594     1 
 6594  6595     1 
 6594  6596     1 
 6594  6602     1 
 6596  6597     1 
 6597  6598     1 
 6597  6599     1 
 6599  6600     1 
 6599  6601     1 
 6599  6611     1 
 6602  6603     1 
 6602  6604     1 
 6602  6605     1 
 6605  6606     1 
 6606  6607     1 
 6606  6608     1 
 6608  6609     1 
 6608  6610     1 
 6608  6658     1 
 6611  6612     1 
 6611  6613     1 
 6611  6614     1 
 6614  6615     1 
 6614  6616     1 
 6614  6617     1 
 6617  6618     1 
 6617  6619     1 
 6617  6620     1 
 6620  6621     1 
 6620  6622     1 
 6620  6623     1 
 6623  6624     1 
 6623  6625     1 
 6623  6626     1 
 6626  6627     1 
 6626  6628     1 
 6626  6629     1 
 6629  6630     1 
 6629  6631     1 
 6631  6632     1 
 6631  6633     1 
 6633  6634     1 
 6633  6635     1 
 6633  6636     1 
 6636  6637     1 
 6636  6638     1 
 6636  6639     1 
 6639  6640     1 
 6639  6641     1 
 6639  6642     1 
 6642  6643     1 
 6642  6644     1 
 6642  6645     1 
 6645  6646     1 
 6645  6647     1 
 6645  6648     1 
 6648  6649     1 
 6648  6650     1 
 6648  6651     1 
 6651  6652     1 
 6651  6653     1 
 6651  6654     1 
 6654  6655     1 
 6654  6656     1 
 6654  6657     1 
 6658  6659     1 
 6658  6660     1 
 6658  6661     1 
 6661  6662     1 
 6661  6663     1 
 6661  6664     1 
 6664  6665     1 
 6664  6666     1 
 6664  6667     1 
 6667  6668     1 
 6667  6669     1 
 6667  6670     1 
 6670  6671     1 
 6670  6672     1 
 6670  6673     1 
 6673  6674     1 
 6673  6675     1 
 6673  6676     1 
 6676  6677     1 
 6676  6678     1 
 6676  6679     1 
 6679  6680     1 
 6679  6681     1 
 6679  6682     1 
 6682  6683     1 
 6682  6684     1 
 6682  6685     1 
 6685  6686     1 
 6685  6687     1 
 6685  6688     1 
 6688  6689     1 
 6688  6690     1 
 6688  6691     1 
 6691  6692     1 
 6691  6693     1 
 6691  6694     1 
 6694  6695     1 
 6694  6696     1 
 6694  6697     1 
 6697  6698     1 
 6697  6699     1 
 6697  6700     1 
 6701  6702     1 
 6701  6705     1 
 6701  6709     1 
 6701  6713     1 
 6702  6703     1 
 6702  6704     1 
 6702  6717     1 
 6705  6706     1 
 6705  6707     1 
 6705  6708     1 
 6709  6710     1 
 6709  6711     1 
 6709  6712     1 
 6713  6714     1 
 6713  6715     1 
 6713  6716     1 
 6717  6718     1 
 6717  6719     1 
 6717  6723     1 
 6720  6721     1 
 6720  6722     1 
 6720  6723     1 
 6720  6724     1 
 6724  6725     1 
 6725  6726     1 
 6725  6727     1 
 6725  6728     1 
 6728  6729     1 
 6728  6730     1 
 6728  6736     1 
 6730  6731     1 
 6731  6732     1 
 6731  6733     1 
 6733  6734     1 
 6733  6735     1 
 6733  6745     1 
 6736  6737     1 
 6736  6738     1 
 6736  6739     1 
 6739  6740     1 
 6740  6741     1 
 6740  6742     1 
 6742  6743     1 
 6742  6744     1 
 6742  6792     1 
 6745  6746     1 
 6745  6747     1 
 6745  6748     1 
 6748  6749     1 
 6748  6750     1 
 6748  6751     1 
 6751  6752     1 
 6751  6753     1 
 6751  6754     1 
 6754  6755     1 
 6754  6756     1 
 6754  6757     1 
 6757  6758     1 
 6757  6759     1 
 6757  6760     1 
 6760  6761     1 
 6760  6762     1 
 6760  6763     1 
 6763  6764     1 
 6763  6765     1 
 6765  6766     1 
 6765  6767     1 
 6767  6768     1 
 6767  6769     1 
 6767  6770     1 
 6770  6771     1 
 6770  6772     1 
 6770  6773     1 
 6773  6774     1 
 6773  6775     1 
 6773  6776     1 
 6776  6777     1 
 6776  6778     1 
 6776  6779     1 
 6779  6780     1 
 6779  6781     1 
 6779  6782     1 
 6782  6783     1 
 6782  6784     1 
 6782  6785     1 
 6785  6786     1 
 6785  6787     1 
 6785  6788     1 
 6788  6789     1 
 6788  6790     1 
 6788  6791     1 
 6792  6793     1 
 6792  6794     1 
 6792  6795     1 
 6795  6796     1 
 6795  6797     1 
 6795  6798     1 
 6798  6799     1 
 6798  6800     1 
 6798  6801     1 
 6801  6802     1 
 6801  6803     1 
 6801  6804     1 
 6804  6805     1 
 6804  6806     1 
 6804  6807     1 
 6807  6808     1 
 6807  6809     1 
 6807  6810     1 
 6810  6811     1 
 6810  6812     1 
 6810  6813     1 
 6813  6814     1 
 6813  6815     1 
 6813  6816     1 
 6816  6817     1 
 6816  6818     1 
 6816  6819     1 
 6819  6820     1 
 6819  6821     1 
 6819  6822     1 
 6822  6823     1 
 6822  6824     1 
 6822  6825     1 
 6825  6826     1 
 6825  6827     1 
 6825  6828     1 
 6828  6829     1 
 6828  6830     1 
 6828  6831     1 
 6831  6832     1 
 6831  6833     1 
 6831  6834     1 
 6835  6836     1 
 6835  6839     1 
 6835  6843     1 
 6835  6847     1 
 6836  6837     1 
 6836  6838     1 
 6836  6851     1 
 6839  6840     1 
 6839  6841     1 
 6839  6842     1 
 6843  6844     1 
 6843  6845     1 
 6843  6846     1 
 6847  6848     1 
 6847  6849     1 
 6847  6850     1 
 6851  6852     1 
 6851  6853     1 
 6851  6857     1 
 6854  6855     1 
 6854  6856     1 
 6854  6857     1 
 6854  6858     1 
 6858  6859     1 
 6859  6860     1 
 6859  6861     1 
 6859  6862     1 
 6862  6863     1 
 6862  6864     1 
 6862  6870     1 
 6864  6865     1 
 6865  6866     1 
 6865  6867     1 
 6867  6868     1 
 6867  6869     1 
 6867  6879     1 
 6870  6871     1 
 6870  6872     1 
 6870  6873     1 
 6873  6874     1 
 6874  6875     1 
 6874  6876     1 
 6876  6877     1 
 6876  6878     1 
 6876  6926     1 
 6879  6880     1 
 6879  6881     1 
 6879  6882     1 
 6882  6883     1 
 6882  6884     1 
 6882  6885     1 
 6885  6886     1 
 6885  6887     1 
 6885  6888     1 
 6888  6889     1 
 6888  6890     1 
 6888  6891     1 
 6891  6892     1 
 6891  6893     1 
 6891  6894     1 
 6894  6895     1 
 6894  6896     1 
 6894  6897     1 
 6897  6898     1 
 6897  6899     1 
 6899  6900     1 
 6899  6901     1 
 6901  6902     1 
 6901  6903     1 
 6901  6904     1 
 6904  6905     1 
 6904  6906     1 
 6904  6907     1 
 6907  6908     1 
 6907  6909     1 
 6907  6910     1 
 6910  6911     1 
 6910  6912     1 
 6910  6913     1 
 6913  6914     1 
 6913  6915     1 
 6913  6916     1 
 6916  6917     1 
 6916  6918     1 
 6916  6919     1 
 6919  6920     1 
 6919  6921     1 
 6919  6922     1 
 6922  6923     1 
 6922  6924     1 
 6922  6925     1 
 6926  6927     1 
 6926  6928     1 
 6926  6929     1 
 6929  6930     1 
 6929  6931     1 
 6929  6932     1 
 6932  6933     1 
 6932  6934     1 
 6932  6935     1 
 6935  6936     1 
 6935  6937     1 
 6935  6938     1 
 6938  6939     1 
 6938  6940     1 
 6938  6941     1 
 6941  6942     1 
 6941  6943     1 
 6941  6944     1 
 6944  6945     1 
 6944  6946     1 
 6944  6947     1 
 6947  6948     1 
 6947  6949     1 
 6947  6950     1 
 6950  6951     1 
 6950  6952     1 
 6950  6953     1 
 6953  6954     1 
 6953  6955     1 
 6953  6956     1 
 6956  6957     1 
 6956  6958     1 
 6956  6959     1 
 6959  6960     1 
 6959  6961     1 
 6959  6962     1 
 6962  6963     1 
 6962  6964     1 
 6962  6965     1 
 6965  6966     1 
 6965  6967     1 
 6965  6968     1 
 6969  6970     1 
 6969  6973     1 
 6969  6977     1 
 6969  6981     1 
 6970  6971     1 
 6970  6972     1 
 6970  6985     1 
 6973  6974     1 
 6973  6975     1 
 6973  6976     1 
 6977  6978     1 
 6977  6979     1 
 6977  6980     1 
 6981  6982     1 
 6981  6983     1 
 6981  6984     1 
 6985  6986     1 
 6985  6987     1 
 6985  6991     1 
 6988  6989     1 
 6988  6990     1 
 6988  6991     1 
 6988  6992     1 
 6992  6993     1 
 6993  6994     1 
 6993  6995     1 
 6993  6996     1 
 6996  6997     1 
 6996  6998     1 
 6996  7004     1 
 6998  6999     1 
 6999  7000     1 
 6999  7001     1 
 7001  7002     1 
 7001  7003     1 
 7001  7013     1 
 7004  7005     1 
 7004  7006     1 
 7004  7007     1 
 7007  7008     1 
 7008  7009     1 
 7008  7010     1 
 7010  7011     1 
 7010  7012     1 
 7010  7060     1 
 7013  7014     1 
 7013  7015     1 
 7013  7016     1 
 7016  7017     1 
 7016  7018     1 
 7016  7019     1 
 7019  7020     1 
 7019  7021     1 
 7019  7022     1 
 7022  7023     1 
 7022  7024     1 
 7022  7025     1 
 7025  7026     1 
 7025  7027     1 
 7025  7028     1 
 7028  7029     1 
 7028  7030     1 
 7028  7031     1 
 7031  7032     1 
 7031  7033     1 
 7033  7034     1 
 7033  7035     1 
 7035  7036     1 
 7035  7037     1 
 7035  7038     1 
 7038  7039     1 
 7038  7040     1 
 7038  7041     1 
 7041  7042     1 
 7041  7043     1 
 7041  7044     1 
 7044  7045     1 
 7044  7046     1 
 7044  7047     1 
 7047  7048     1 
 7047  7049     1 
 7047  7050     1 
 7050  7051     1 
 7050  7052     1 
 7050  7053     1 
 7053  7054     1 
 7053  7055     1 
 7053  7056     1 
 7056  7057     1 
 7056  7058     1 
 7056  7059     1 
 7060  7061     1 
 7060  7062     1 
 7060  7063     1 
 7063  7064     1 
 7063  7065     1 
 7063  7066     1 
 7066  7067     1 
 7066  7068     1 
 7066  7069     1 
 7069  7070     1 
 7069  7071     1 
 7069  7072     1 
 7072  7073     1 
 7072  7074     1 
 7072  7075     1 
 7075  7076     1 
 7075  7077     1 
 7075  7078     1 
 7078  7079     1 
 7078  7080     1 
 7078  7081     1 
 7081  7082     1 
 7081  7083     1 
 7081  7084     1 
 7084  7085     1 
 7084  7086     1 
 7084  7087     1 
 7087  7088     1 
 7087  7089     1 
 7087  7090     1 
 7090  7091     1 
 7090  7092     1 
 7090  7093     1 
 7093  7094     1 
 7093  7095     1 
 7093  7096     1 
 7096  7097     1 
 7096  7098     1 
 7096  7099     1 
 7099  7100     1 
 7099  7101     1 
 7099  7102     1 
 7103  7104     1 
 7103  7107     1 
 7103  7111     1 
 7103  7115     1 
 7104  7105     1 
 7104  7106     1 
 7104  7119     1 
 7107  7108     1 
 7107  7109     1 
 7107  7110     1 
 7111  7112     1 
 7111  7113     1 
 7111  7114     1 
 7115  7116     1 
 7115  7117     1 
 7115  7118     1 
 7119  7120     1 
 7119  7121     1 
 7119  7125     1 
 7122  7123     1 
 7122  7124     1 
 7122  7125     1 
 7122  7126     1 
 7126  7127     1 
 7127  7128     1 
 7127  7129     1 
 7127  7130     1 
 7130  7131     1 
 7130  7132     1 
 7130  7138     1 
 7132  7133     1 
 7133  7134     1 
 7133  7135     1 
 7135  7136     1 
 7135  7137     1 
 7135  7147     1 
 7138  7139     1 
 7138  7140     1 
 7138  7141     1 
 7141  7142     1 
 7142  7143     1 
 7142  7144     1 
 7144  7145     1 
 7144  7146     1 
 7144  7194     1 
 7147  7148     1 
 7147  7149     1 
 7147  7150     1 
 7150  7151     1 
 7150  7152     1 
 7150  7153     1 
 7153  7154     1 
 7153  7155     1 
 7153  7156     1 
 7156  7157     1 
 7156  7158     1 
 7156  7159     1 
 7159  7160     1 
 7159  7161     1 
 7159  7162     1 
 7162  7163     1 
 7162  7164     1 
 7162  7165     1 
 7165  7166     1 
 7165  7167     1 
 7167  7168     1 
 7167  7169     1 
 7169  7170     1 
 7169  7171     1 
 7169  7172     1 
 7172  7173     1 
 7172  7174     1 
 7172  7175     1 
 7175  7176     1 
 7175  7177     1 
 7175  7178     1 
 7178  7179     1 
 7178  7180     1 
 7178  7181     1 
 7181  7182     1 
 7181  7183     1 
 7181  7184     1 
 7184  7185     1 
 7184  7186     1 
 7184  7187     1 
 7187  7188     1 
 7187  7189     1 
 7187  7190     1 
 7190  7191     1 
 7190  7192     1 
 7190  7193     1 
 7194  7195     1 
 7194  7196     1 
 7194  7197     1 
 7197  7198     1 
 7197  7199     1 
 7197  7200     1 
 7200  7201     1 
 7200  7202     1 
 7200  7203     1 
 7203  7204     1 
 7203  7205     1 
 7203  7206     1 
 7206  7207     1 
 7206  7208     1 
 7206  7209     1 
 7209  7210     1 
 7209  7211     1 
 7209  7212     1 
 7212  7213     1 
 7212  7214     1 
 7212  7215     1 
 7215  7216     1 
 7215  7217     1 
 7215  7218     1 
 7218  7219     1 
 7218  7220     1 
 7218  7221     1 
 7221  7222     1 
 7221  7223     1 
 7221  7224     1 
 7224  7225     1 
 7224  7226     1 
 7224  7227     1 
 7227  7228     1 
 7227  7229     1 
 7227  7230     1 
 7230  7231     1 
 7230  7232     1 
 7230  7233     1 
 7233  7234     1 
 7233  7235     1 
 7233  7236     1 
 7237  7238     1 
 7237  7241     1 
 7237  7245     1 
 7237  7249     1 
 7238  7239     1 
 7238  7240     1 
 7238  7253     1 
 7241  7242     1 
 7241  7243     1 
 7241  7244     1 
 7245  7246     1 
 7245  7247     1 
 7245  7248     1 
 7249  7250     1 
 7249  7251     1 
 7249  7252     1 
 7253  7254     1 
 7253  7255     1 
 7253  7259     1 
 7256  7257     1 
 7256  7258     1 
 7256  7259     1 
 7256  7260     1 
 7260  7261     1 
 7261  7262     1 
 7261  7263     1 
 7261  7264     1 
 7264  7265     1 
 7264  7266     1 
 7264  7272     1 
 7266  7267     1 
 7267  7268     1 
 7267  7269     1 
 7269  7270     1 
 7269  7271     1 
 7269  7281     1 
 7272  7273     1 
 7272  7274     1 
 7272  7275     1 
 7275  7276     1 
 7276  7277     1 
 7276  7278     1 
 7278  7279     1 
 7278  7280     1 
 7278  7328     1 
 7281  7282     1 
 7281  7283     1 
 7281  7284     1 
 7284  7285     1 
 7284  7286     1 
 7284  7287     1 
 7287  7288     1 
 7287  7289     1 
 7287  7290     1 
 7290  7291     1 
 7290  7292     1 
 7290  7293     1 
 7293  7294     1 
 7293  7295     1 
 7293  7296     1 
 7296  7297     1 
 7296  7298     1 
 7296  7299     1 
 7299  7300     1 
 7299  7301     1 
 7301  7302     1 
 7301  7303     1 
 7303  7304     1 
 7303  7305     1 
 7303  7306     1 
 7306  7307     1 
 7306  7308     1 
 7306  7309     1 
 7309  7310     1 
 7309  7311     1 
 7309  7312     1 
 7312  7313     1 
 7312  7314     1 
 7312  7315     1 
 7315  7316     1 
 7315  7317     1 
 7315  7318     1 
 7318  7319     1 
 7318  7320     1 
 7318  7321     1 
 7321  7322     1 
 7321  7323     1 
 7321  7324     1 
 7324  7325     1 
 7324  7326     1 
 7324  7327     1 
 7328  7329     1 
 7328  7330     1 
 7328  7331     1 
 7331  7332     1 
 7331  7333     1 
 7331  7334     1 
 7334  7335     1 
 7334  7336     1 
 7334  7337     1 
 7337  7338     1 
 7337  7339     1 
 7337  7340     1 
 7340  7341     1 
 7340  7342     1 
 7340  7343     1 
 7343  7344     1 
 7343  7345     1 
 7343  7346     1 
 7346  7347     1 
 7346  7348     1 
 7346  7349     1 
 7349  7350     1 
 7349  7351     1 
 7349  7352     1 
 7352  7353     1 
 7352  7354     1 
 7352  7355     1 
 7355  7356     1 
 7355  7357     1 
 7355  7358     1 
 7358  7359     1 
 7358  7360     1 
 7358  7361     1 
 7361  7362     1 
 7361  7363     1 
 7361  7364     1 
 7364  7365     1 
 7364  7366     1 
 7364  7367     1 
 7367  7368     1 
 7367  7369     1 
 7367  7370     1 
 7371  7372     1 
 7371  7375     1 
 7371  7379     1 
 7371  7383     1 
 7372  7373     1 
 7372  7374     1 
 7372  7387     1 
 7375  7376     1 
 7375  7377     1 
 7375  7378     1 
 7379  7380     1 
 7379  7381     1 
 7379  7382     1 
 7383  7384     1 
 7383  7385     1 
 7383  7386     1 
 7387  7388     1 
 7387  7389     1 
 7387  7393     1 
 7390  7391     1 
 7390  7392     1 
 7390  7393     1 
 7390  7394     1 
 7394  7395     1 
 7395  7396     1 
 7395  7397     1 
 7395  7398     1 
 7398  7399     1 
 7398  7400     1 
 7398  7406     1 
 7400  7401     1 
 7401  7402     1 
 7401  7403     1 
 7403  7404     1 
 7403  7405     1 
 7403  7415     1 
 7406  7407     1 
 7406  7408     1 
 7406  7409     1 
 7409  7410     1 
 7410  7411     1 
 7410  7412     1 
 7412  7413     1 
 7412  7414     1 
 7412  7462     1 
 7415  7416     1 
 7415  7417     1 
 7415  7418     1 
 7418  7419     1 
 7418  7420     1 
 7418  7421     1 
 7421  7422     1 
 7421  7423     1 
 7421  7424     1 
 7424  7425     1 
 7424  7426     1 
 7424  7427     1 
 7427  7428     1 
 7427  7429     1 
 7427  7430     1 
 7430  7431     1 
 7430  7432     1 
 7430  7433     1 
 7433  7434     1 
 7433  7435     1 
 7435  7436     1 
 7435  7437     1 
 7437  7438     1 
 7437  7439     1 
 7437  7440     1 
 7440  7441     1 
 7440  7442     1 
 7440  7443     1 
 7443  7444     1 
 7443  7445     1 
 7443  7446     1 
 7446  7447     1 
 7446  7448     1 
 7446  7449     1 
 7449  7450     1 
 7449  7451     1 
 7449  7452     1 
 7452  7453     1 
 7452  7454     1 
 7452  7455     1 
 7455  7456     1 
 7455  7457     1 
 7455  7458     1 
 7458  7459     1 
 7458  7460     1 
 7458  7461     1 
 7462  7463     1 
 7462  7464     1 
 7462  7465     1 
 7465  7466     1 
 7465  7467     1 
 7465  7468     1 
 7468  7469     1 
 7468  7470     1 
 7468  7471     1 
 7471  7472     1 
 7471  7473     1 
 7471  7474     1 
 7474  7475     1 
 7474  7476     1 
 7474  7477     1 
 7477  7478     1 
 7477  7479     1 
 7477  7480     1 
 7480  7481     1 
 7480  7482     1 
 7480  7483     1 
 7483  7484     1 
 7483  7485     1 
 7483  7486     1 
 7486  7487     1 
 7486  7488     1 
 7486  7489     1 
 7489  7490     1 
 7489  7491     1 
 7489  7492     1 
 7492  7493     1 
 7492  7494     1 
 7492  7495     1 
 7495  7496     1 
 7495  7497     1 
 7495  7498     1 
 7498  7499     1 
 7498  7500     1 
 7498  7501     1 
 7501  7502     1 
 7501  7503     1 
 7501  7504     1 
 7505  7506     1 
 7505  7509     1 
 7505  7513     1 
 7505  7517     1 
 7506  7507     1 
 7506  7508     1 
 7506  7521     1 
 7509  7510     1 
 7509  7511     1 
 7509  7512     1 
 7513  7514     1 
 7513  7515     1 
 7513  7516     1 
 7517  7518     1 
 7517  7519     1 
 7517  7520     1 
 7521  7522     1 
 7521  7523     1 
 7521  7527     1 
 7524  7525     1 
 7524  7526     1 
 7524  7527     1 
 7524  7528     1 
 7528  7529     1 
 7529  7530     1 
 7529  7531     1 
 7529  7532     1 
 7532  7533     1 
 7532  7534     1 
 7532  7540     1 
 7534  7535     1 
 7535  7536     1 
 7535  7537     1 
 7537  7538     1 
 7537  7539     1 
 7537  7549     1 
 7540  7541     1 
 7540  7542     1 
 7540  7543     1 
 7543  7544     1 
 7544  7545     1 
 7544  7546     1 
 7546  7547     1 
 7546  7548     1 
 7546  7596     1 
 7549  7550     1 
 7549  7551     1 
 7549  7552     1 
 7552  7553     1 
 7552  7554     1 
 7552  7555     1 
 7555  7556     1 
 7555  7557     1 
 7555  7558     1 
 7558  7559     1 
 7558  7560     1 
 7558  7561     1 
 7561  7562     1 
 7561  7563     1 
 7561  7564     1 
 7564  7565     1 
 7564  7566     1 
 7564  7567     1 
 7567  7568     1 
 7567  7569     1 
 7569  7570     1 
 7569  7571     1 
 7571  7572     1 
 7571  7573     1 
 7571  7574     1 
 7574  7575     1 
 7574  7576     1 
 7574  7577     1 
 7577  7578     1 
 7577  7579     1 
 7577  7580     1 
 7580  7581     1 
 7580  7582     1 
 7580  7583     1 
 7583  7584     1 
 7583  7585     1 
 7583  7586     1 
 7586  7587     1 
 7586  7588     1 
 7586  7589     1 
 7589  7590     1 
 7589  7591     1 
 7589  7592     1 
 7592  7593     1 
 7592  7594     1 
 7592  7595     1 
 7596  7597     1 
 7596  7598     1 
 7596  7599     1 
 7599  7600     1 
 7599  7601     1 
 7599  7602     1 
 7602  7603     1 
 7602  7604     1 
 7602  7605     1 
 7605  7606     1 
 7605  7607     1 
 7605  7608     1 
 7608  7609     1 
 7608  7610     1 
 7608  7611     1 
 7611  7612     1 
 7611  7613     1 
 7611  7614     1 
 7614  7615     1 
 7614  7616     1 
 7614  7617     1 
 7617  7618     1 
 7617  7619     1 
 7617  7620     1 
 7620  7621     1 
 7620  7622     1 
 7620  7623     1 
 7623  7624     1 
 7623  7625     1 
 7623  7626     1 
 7626  7627     1 
 7626  7628     1 
 7626  7629     1 
 7629  7630     1 
 7629  7631     1 
 7629  7632     1 
 7632  7633     1 
 7632  7634     1 
 7632  7635     1 
 7635  7636     1 
 7635  7637     1 
 7635  7638     1 
 7639  7640     1 
 7639  7643     1 
 7639  7647     1 
 7639  7651     1 
 7640  7641     1 
 7640  7642     1 
 7640  7655     1 
 7643  7644     1 
 7643  7645     1 
 7643  7646     1 
 7647  7648     1 
 7647  7649     1 
 7647  7650     1 
 7651  7652     1 
 7651  7653     1 
 7651  7654     1 
 7655  7656     1 
 7655  7657     1 
 7655  7661     1 
 7658  7659     1 
 7658  7660     1 
 7658  7661     1 
 7658  7662     1 
 7662  7663     1 
 7663  7664     1 
 7663  7665     1 
 7663  7666     1 
 7666  7667     1 
 7666  7668     1 
 7666  7674     1 
 7668  7669     1 
 7669  7670     1 
 7669  7671     1 
 7671  7672     1 
 7671  7673     1 
 7671  7683     1 
 7674  7675     1 
 7674  7676     1 
 7674  7677     1 
 7677  7678     1 
 7678  7679     1 
 7678  7680     1 
 7680  7681     1 
 7680  7682     1 
 7680  7730     1 
 7683  7684     1 
 7683  7685     1 
 7683  7686     1 
 7686  7687     1 
 7686  7688     1 
 7686  7689     1 
 7689  7690     1 
 7689  7691     1 
 7689  7692     1 
 7692  7693     1 
 7692  7694     1 
 7692  7695     1 
 7695  7696     1 
 7695  7697     1 
 7695  7698     1 
 7698  7699     1 
 7698  7700     1 
 7698  7701     1 
 7701  7702     1 
 7701  7703     1 
 7703  7704     1 
 7703  7705     1 
 7705  7706     1 
 7705  7707     1 
 7705  7708     1 
 7708  7709     1 
 7708  7710     1 
 7708  7711     1 
 7711  7712     1 
 7711  7713     1 
 7711  7714     1 
 7714  7715     1 
 7714  7716     1 
 7714  7717     1 
 7717  7718     1 
 7717  7719     1 
 7717  7720     1 
 7720  7721     1 
 7720  7722     1 
 7720  7723     1 
 7723  7724     1 
 7723  7725     1 
 7723  7726     1 
 7726  7727     1 
 7726  7728     1 
 7726  7729     1 
 7730  7731     1 
 7730  7732     1 
 7730  7733     1 
 7733  7734     1 
 7733  7735     1 
 7733  7736     1 
 7736  7737     1 
 7736  7738     1 
 7736  7739     1 
 7739  7740     1 
 7739  7741     1 
 7739  7742     1 
 7742  7743     1 
 7742  7744     1 
 7742  7745     1 
 7745  7746     1 
 7745  7747     1 
 7745  7748     1 
 7748  7749     1 
 7748  7750     1 
 7748  7751     1 
 7751  7752     1 
 7751  7753     1 
 7751  7754     1 
 7754  7755     1 
 7754  7756     1 
 7754  7757     1 
 7757  7758     1 
 7757  7759     1 
 7757  7760     1 
 7760  7761     1 
 7760  7762     1 
 7760  7763     1 
 7763  7764     1 
 7763  7765     1 
 7763  7766     1 
 7766  7767     1 
 7766  7768     1 
 7766  7769     1 
 7769  7770     1 
 7769  7771     1 
 7769  7772     1 
 7773  7774     1 
 7773  7777     1 
 7773  7781     1 
 7773  7785     1 
 7774  7775     1 
 7774  7776     1 
 7774  7789     1 
 7777  7778     1 
 7777  7779     1 
 7777  7780     1 
 7781  7782     1 
 7781  7783     1 
 7781  7784     1 
 7785  7786     1 
 7785  7787     1 
 7785  7788     1 
 7789  7790     1 
 7789  7791     1 
 7789  7795     1 
 7792  7793     1 
 7792  7794     1 
 7792  7795     1 
 7792  7796     1 
 7796  7797     1 
 7797  7798     1 
 7797  7799     1 
 7797  7800     1 
 7800  7801     1 
 7800  7802     1 
 7800  7808     1 
 7802  7803     1 
 7803  7804     1 
 7803  7805     1 
 7805  7806     1 
 7805  7807     1 
 7805  7817     1 
 7808  7809     1 
 7808  7810     1 
 7808  7811     1 
 7811  7812     1 
 7812  7813     1 
 7812  7814     1 
 7814  7815     1 
 7814  7816     1 
 7814  7864     1 
 7817  7818     1 
 7817  7819     1 
 7817  7820     1 
 7820  7821     1 
 7820  7822     1 
 7820  7823     1 
 7823  7824     1 
 7823  7825     1 
 7823  7826     1 
 7826  7827     1 
 7826  7828     1 
 7826  7829     1 
 7829  7830     1 
 7829  7831     1 
 7829  7832     1 
 7832  7833     1 
 7832  7834     1 
 7832  7835     1 
 7835  7836     1 
 7835  7837     1 
 7837  7838     1 
 7837  7839     1 
 7839  7840     1 
 7839  7841     1 
 7839  7842     1 
 7842  7843     1 
 7842  7844     1 
 7842  7845     1 
 7845  7846     1 
 7845  7847     1 
 7845  7848     1 
 7848  7849     1 
 7848  7850     1 
 7848  7851     1 
 7851  7852     1 
 7851  7853     1 
 7851  7854     1 
 7854  7855     1 
 7854  7856     1 
 7854  7857     1 
 7857  7858     1 
 7857  7859     1 
 7857  7860     1 
 7860  7861     1 
 7860  7862     1 
 7860  7863     1 
 7864  7865     1 
 7864  7866     1 
 7864  7867     1 
 7867  7868     1 
 7867  7869     1 
 7867  7870     1 
 7870  7871     1 
 7870  7872     1 
 7870  7873     1 
 7873  7874     1 
 7873  7875     1 
 7873  7876     1 
 7876  7877     1 
 7876  7878     1 
 7876  7879     1 
 7879  7880     1 
 7879  7881     1 
 7879  7882     1 
 7882  7883     1 
 7882  7884     1 
 7882  7885     1 
 7885  7886     1 
 7885  7887     1 
 7885  7888     1 
 7888  7889     1 
 7888  7890     1 
 7888  7891     1 
 7891  7892     1 
 7891  7893     1 
 7891  7894     1 
 7894  7895     1 
 7894  7896     1 
 7894  7897     1 
 7897  7898     1 
 7897  7899     1 
 7897  7900     1 
 7900  7901     1 
 7900  7902     1 
 7900  7903     1 
 7903  7904     1 
 7903  7905     1 
 7903  7906     1 
 7907  7908     1 
 7907  7911     1 
 7907  7915     1 
 7907  7919     1 
 7908  7909     1 
 7908  7910     1 
 7908  7923     1 
 7911  7912     1 
 7911  7913     1 
 7911  7914     1 
 7915  7916     1 
 7915  7917     1 
 7915  7918     1 
 7919  7920     1 
 7919  7921     1 
 7919  7922     1 
 7923  7924     1 
 7923  7925     1 
 7923  7929     1 
 7926  7927     1 
 7926  7928     1 
 7926  7929     1 
 7926  7930     1 
 7930  7931     1 
 7931  7932     1 
 7931  7933     1 
 7931  7934     1 
 7934  7935     1 
 7934  7936     1 
 7934  7942     1 
 7936  7937     1 
 7937  7938     1 
 7937  7939     1 
 7939  7940     1 
 7939  7941     1 
 7939  7951     1 
 7942  7943     1 
 7942  7944     1 
 7942  7945     1 
 7945  7946     1 
 7946  7947     1 
 7946  7948     1 
 7948  7949     1 
 7948  7950     1 
 7948  7998     1 
 7951  7952     1 
 7951  7953     1 
 7951  7954     1 
 7954  7955     1 
 7954  7956     1 
 7954  7957     1 
 7957  7958     1 
 7957  7959     1 
 7957  7960     1 
 7960  7961     1 
 7960  7962     1 
 7960  7963     1 
 7963  7964     1 
 7963  7965     1 
 7963  7966     1 
 7966  7967     1 
 7966  7968     1 
 7966  7969     1 
 7969  7970     1 
 7969  7971     1 
 7971  7972     1 
 7971  7973     1 
 7973  7974     1 
 7973  7975     1 
 7973  7976     1 
 7976  7977     1 
 7976  7978     1 
 7976  7979     1 
 7979  7980     1 
 7979  7981     1 
 7979  7982     1 
 7982  7983     1 
 7982  7984     1 
 7982  7985     1 
 7985  7986     1 
 7985  7987     1 
 7985  7988     1 
 7988  7989     1 
 7988  7990     1 
 7988  7991     1 
 7991  7992     1 
 7991  7993     1 
 7991  7994     1 
 7994  7995     1 
 7994  7996     1 
 7994  7997     1 
 7998  7999     1 
 7998  8000     1 
 7998  8001     1 
 8001  8002     1 
 8001  8003     1 
 8001  8004     1 
 8004  8005     1 
 8004  8006     1 
 8004  8007     1 
 8007  8008     1 
 8007  8009     1 
 8007  8010     1 
 8010  8011     1 
 8010  8012     1 
 8010  8013     1 
 8013  8014     1 
 8013  8015     1 
 8013  8016     1 
 8016  8017     1 
 8016  8018     1 
 8016  8019     1 
 8019  8020     1 
 8019  8021     1 
 8019  8022     1 
 8022  8023     1 
 8022  8024     1 
 8022  8025     1 
 8025  8026     1 
 8025  8027     1 
 8025  8028     1 
 8028  8029     1 
 8028  8030     1 
 8028  8031     1 
 8031  8032     1 
 8031  8033     1 
 8031  8034     1 
 8034  8035     1 
 8034  8036     1 
 8034  8037     1 
 8037  8038     1 
 8037  8039     1 
 8037  8040     1 
 8041  8042     1 
 8041  8045     1 
 8041  8049     1 
 8041  8053     1 
 8042  8043     1 
 8042  8044     1 
 8042  8057     1 
 8045  8046     1 
 8045  8047     1 
 8045  8048     1 
 8049  8050     1 
 8049  8051     1 
 8049  8052     1 
 8053  8054     1 
 8053  8055     1 
 8053  8056     1 
 8057  8058     1 
 8057  8059     1 
 8057  8063     1 
 8060  8061     1 
 8060  8062     1 
 8060  8063     1 
 8060  8064     1 
 8064  8065     1 
 8065  8066     1 
 8065  8067     1 
 8065  8068     1 
 8068  8069     1 
 8068  8070     1 
 8068  8076     1 
 8070  8071     1 
 8071  8072     1 
 8071  8073     1 
 8073  8074     1 
 8073  8075     1 
 8073  8085     1 
 8076  8077     1 
 8076  8078     1 
 8076  8079     1 
 8079  8080     1 
 8080  8081     1 
 8080  8082     1 
 8082  8083     1 
 8082  8084     1 
 8082  8132     1 
 8085  8086     1 
 8085  8087     1 
 8085  8088     1 
 8088  8089     1 
 8088  8090     1 
 8088  8091     1 
 8091  8092     1 
 8091  8093     1 
 8091  8094     1 
 8094  8095     1 
 8094  8096     1 
 8094  8097     1 
 8097  8098     1 
 8097  8099     1 
 8097  8100     1 
 8100  8101     1 
 8100  8102     1 
 8100  8103     1 
 8103  8104     1 
 8103  8105     1 
 8105  8106     1 
 8105  8107     1 
 8107  8108     1 
 8107  8109     1 
 8107  8110     1 
 8110  8111     1 
 8110  8112     1 
 8110  8113     1 
 8113  8114     1 
 8113  8115     1 
 8113  8116     1 
 8116  8117     1 
 8116  8118     1 
 8116  8119     1 
 8119  8120     1 
 8119  8121     1 
 8119  8122     1 
 8122  8123     1 
 8122  8124     1 
 8122  8125     1 
 8125  8126     1 
 8125  8127     1 
 8125  8128     1 
 8128  8129     1 
 8128  8130     1 
 8128  8131     1 
 8132  8133     1 
 8132  8134     1 
 8132  8135     1 
 8135  8136     1 
 8135  8137     1 
 8135  8138     1 
 8138  8139     1 
 8138  8140     1 
 8138  8141     1 
 8141  8142     1 
 8141  8143     1 
 8141  8144     1 
 8144  8145     1 
 8144  8146     1 
 8144  8147     1 
 8147  8148     1 
 8147  8149     1 
 8147  8150     1 
 8150  8151     1 
 8150  8152     1 
 8150  8153     1 
 8153  8154     1 
 8153  8155     1 
 8153  8156     1 
 8156  8157     1 
 8156  8158     1 
 8156  8159     1 
 8159  8160     1 
 8159  8161     1 
 8159  8162     1 
 8162  8163     1 
 8162  8164     1 
 8162  8165     1 
 8165  8166     1 
 8165  8167     1 
 8165  8168     1 
 8168  8169     1 
 8168  8170     1 
 8168  8171     1 
 8171  8172     1 
 8171  8173     1 
 8171  8174     1 
 8175  8176     1 
 8175  8179     1 
 8175  8183     1 
 8175  8187     1 
 8176  8177     1 
 8176  8178     1 
 8176  8191     1 
 8179  8180     1 
 8179  8181     1 
 8179  8182     1 
 8183  8184     1 
 8183  8185     1 
 8183  8186     1 
 8187  8188     1 
 8187  8189     1 
 8187  8190     1 
 8191  8192     1 
 8191  8193     1 
 8191  8197     1 
 8194  8195     1 
 8194  8196     1 
 8194  8197     1 
 8194  8198     1 
 8198  8199     1 
 8199  8200     1 
 8199  8201     1 
 8199  8202     1 
 8202  8203     1 
 8202  8204     1 
 8202  8210     1 
 8204  8205     1 
 8205  8206     1 
 8205  8207     1 
 8207  8208     1 
 8207  8209     1 
 8207  8219     1 
 8210  8211     1 
 8210  8212     1 
 8210  8213     1 
 8213  8214     1 
 8214  8215     1 
 8214  8216     1 
 8216  8217     1 
 8216  8218     1 
 8216  8266     1 
 8219  8220     1 
 8219  8221     1 
 8219  8222     1 
 8222  8223     1 
 8222  8224     1 
 8222  8225     1 
 8225  8226     1 
 8225  8227     1 
 8225  8228     1 
 8228  8229     1 
 8228  8230     1 
 8228  8231     1 
 8231  8232     1 
 8231  8233     1 
 8231  8234     1 
 8234  8235     1 
 8234  8236     1 
 8234  8237     1 
 8237  8238     1 
 8237  8239     1 
 8239  8240     1 
 8239  8241     1 
 8241  8242     1 
 8241  8243     1 
 8241  8244     1 
 8244  8245     1 
 8244  8246     1 
 8244  8247     1 
 8247  8248     1 
 8247  8249     1 
 8247  8250     1 
 8250  8251     1 
 8250  8252     1 
 8250  8253     1 
 8253  8254     1 
 8253  8255     1 
 8253  8256     1 
 8256  8257     1 
 8256  8258     1 
 8256  8259     1 
 8259  8260     1 
 8259  8261     1 
 8259  8262     1 
 8262  8263     1 
 8262  8264     1 
 8262  8265     1 
 8266  8267     1 
 8266  8268     1 
 8266  8269     1 
 8269  8270     1 
 8269  8271     1 
 8269  8272     1 
 8272  8273     1 
 8272  8274     1 
 8272  8275     1 
 8275  8276     1 
 8275  8277     1 
 8275  8278     1 
 8278  8279     1 
 8278  8280     1 
 8278  8281     1 
 8281  8282     1 
 8281  8283     1 
 8281  8284     1 
 8284  8285     1 
 8284  8286     1 
 8284  8287     1 
 8287  8288     1 
 8287  8289     1 
 8287  8290     1 
 8290  8291     1 
 8290  8292     1 
 8290  8293     1 
 8293  8294     1 
 8293  8295     1 
 8293  8296     1 
 8296  8297     1 
 8296  8298     1 
 8296  8299     1 
 8299  8300     1 
 8299  8301     1 
 8299  8302     1 
 8302  8303     1 
 8302  8304     1 
 8302  8305     1 
 8305  8306     1 
 8305  8307     1 
 8305  8308     1 
 8309  8310     1 
 8309  8313     1 
 8309  8317     1 
 8309  8321     1 
 8310  8311     1 
 8310  8312     1 
 8310  8325     1 
 8313  8314     1 
 8313  8315     1 
 8313  8316     1 
 8317  8318     1 
 8317  8319     1 
 8317  8320     1 
 8321  8322     1 
 8321  8323     1 
 8321  8324     1 
 8325  8326     1 
 8325  8327     1 
 8325  8331     1 
 8328  8329     1 
 8328  8330     1 
 8328  8331     1 
 8328  8332     1 
 8332  8333     1 
 8333  8334     1 
 8333  8335     1 
 8333  8336     1 
 8336  8337     1 
 8336  8338     1 
 8336  8344     1 
 8338  8339     1 
 8339  8340     1 
 8339  8341     1 
 8341  8342     1 
 8341  8343     1 
 8341  8353     1 
 8344  8345     1 
 8344  8346     1 
 8344  8347     1 
 8347  8348     1 
 8348  8349     1 
 8348  8350     1 
 8350  8351     1 
 8350  8352     1 
 8350  8400     1 
 8353  8354     1 
 8353  8355     1 
 8353  8356     1 
 8356  8357     1 
 8356  8358     1 
 8356  8359     1 
 8359  8360     1 
 8359  8361     1 
 8359  8362     1 
 8362  8363     1 
 8362  8364     1 
 8362  8365     1 
 8365  8366     1 
 8365  8367     1 
 8365  8368     1 
 8368  8369     1 
 8368  8370     1 
 8368  8371     1 
 8371  8372     1 
 8371  8373     1 
 8373  8374     1 
 8373  8375     1 
 8375  8376     1 
 8375  8377     1 
 8375  8378     1 
 8378  8379     1 
 8378  8380     1 
 8378  8381     1 
 8381  8382     1 
 8381  8383     1 
 8381  8384     1 
 8384  8385     1 
 8384  8386     1 
 8384  8387     1 
 8387  8388     1 
 8387  8389     1 
 8387  8390     1 
 8390  8391     1 
 8390  8392     1 
 8390  8393     1 
 8393  8394     1 
 8393  8395     1 
 8393  8396     1 
 8396  8397     1 
 8396  8398     1 
 8396  8399     1 
 8400  8401     1 
 8400  8402     1 
 8400  8403     1 
 8403  8404     1 
 8403  8405     1 
 8403  8406     1 
 8406  8407     1 
 8406  8408     1 
 8406  8409     1 
 8409  8410     1 
 8409  8411     1 
 8409  8412     1 
 8412  8413     1 
 8412  8414     1 
 8412  8415     1 
 8415  8416     1 
 8415  8417     1 
 8415  8418     1 
 8418  8419     1 
 8418  8420     1 
 8418  8421     1 
 8421  8422     1 
 8421  8423     1 
 8421  8424     1 
 8424  8425     1 
 8424  8426     1 
 8424  8427     1 
 8427  8428     1 
 8427  8429     1 
 8427  8430     1 
 8430  8431     1 
 8430  8432     1 
 8430  8433     1 
 8433  8434     1 
 8433  8435     1 
 8433  8436     1 
 8436  8437     1 
 8436  8438     1 
 8436  8439     1 
 8439  8440     1 
 8439  8441     1 
 8439  8442     1 
 8443  8444     1 
 8443  8447     1 
 8443  8451     1 
 8443  8455     1 
 8444  8445     1 
 8444  8446     1 
 8444  8459     1 
 8447  8448     1 
 8447  8449     1 
 8447  8450     1 
 8451  8452     1 
 8451  8453     1 
 8451  8454     1 
 8455  8456     1 
 8455  8457     1 
 8455  8458     1 
 8459  8460     1 
 8459  8461     1 
 8459  8465     1 
 8462  8463     1 
 8462  8464     1 
 8462  8465     1 
 8462  8466     1 
 8466  8467     1 
 8467  8468     1 
 8467  8469     1 
 8467  8470     1 
 8470  8471     1 
 8470  8472     1 
 8470  8478     1 
 8472  8473     1 
 8473  8474     1 
 8473  8475     1 
 8475  8476     1 
 8475  8477     1 
 8475  8487     1 
 8478  8479     1 
 8478  8480     1 
 8478  8481     1 
 8481  8482     1 
 8482  8483     1 
 8482  8484     1 
 8484  8485     1 
 8484  8486     1 
 8484  8534     1 
 8487  8488     1 
 8487  8489     1 
 8487  8490     1 
 8490  8491     1 
 8490  8492     1 
 8490  8493     1 
 8493  8494     1 
 8493  8495     1 
 8493  8496     1 
 8496  8497     1 
 8496  8498     1 
 8496  8499     1 
 8499  8500     1 
 8499  8501     1 
 8499  8502     1 
 8502  8503     1 
 8502  8504     1 
 8502  8505     1 
 8505  8506     1 
 8505  8507     1 
 8507  8508     1 
 8507  8509     1 
 8509  8510     1 
 8509  8511     1 
 8509  8512     1 
 8512  8513     1 
 8512  8514     1 
 8512  8515     1 
 8515  8516     1 
 8515  8517     1 
 8515  8518     1 
 8518  8519     1 
 8518  8520     1 
 8518  8521     1 
 8521  8522     1 
 8521  8523     1 
 8521  8524     1 
 8524  8525     1 
 8524  8526     1 
 8524  8527     1 
 8527  8528     1 
 8527  8529     1 
 8527  8530     1 
 8530  8531     1 
 8530  8532     1 
 8530  8533     1 
 8534  8535     1 
 8534  8536     1 
 8534  8537     1 
 8537  8538     1 
 8537  8539     1 
 8537  8540     1 
 8540  8541     1 
 8540  8542     1 
 8540  8543     1 
 8543  8544     1 
 8543  8545     1 
 8543  8546     1 
 8546  8547     1 
 8546  8548     1 
 8546  8549     1 
 8549  8550     1 
 8549  8551     1 
 8549  8552     1 
 8552  8553     1 
 8552  8554     1 
 8552  8555     1 
 8555  8556     1 
 8555  8557     1 
 8555  8558     1 
 8558  8559     1 
 8558  8560     1 
 8558  8561     1 
 8561  8562     1 
 8561  8563     1 
 8561  8564     1 
 8564  8565     1 
 8564  8566     1 
 8564  8567     1 
 8567  8568     1 
 8567  8569     1 
 8567  8570     1 
 8570  8571     1 
 8570  8572     1 
 8570  8573     1 
 8573  8574     1 
 8573  8575     1 
 8573  8576     1 
 8577  8578     1 
 8577  8581     1 
 8577  8585     1 
 8577  8589     1 
 8578  8579     1 
 8578  8580     1 
 8578  8593     1 
 8581  8582     1 
 8581  8583     1 
 8581  8584     1 
 8585  8586     1 
 8585  8587     1 
 8585  8588     1 
 8589  8590     1 
 8589  8591     1 
 8589  8592     1 
 8593  8594     1 
 8593  8595     1 
 8593  8599     1 
 8596  8597     1 
 8596  8598     1 
 8596  8599     1 
 8596  8600     1 
 8600  8601     1 
 8601  8602     1 
 8601  8603     1 
 8601  8604     1 
 8604  8605     1 
 8604  8606     1 
 8604  8612     1 
 8606  8607     1 
 8607  8608     1 
 8607  8609     1 
 8609  8610     1 
 8609  8611     1 
 8609  8621     1 
 8612  8613     1 
 8612  8614     1 
 8612  8615     1 
 8615  8616     1 
 8616  8617     1 
 8616  8618     1 
 8618  8619     1 
 8618  8620     1 
 8618  8668     1 
 8621  8622     1 
 8621  8623     1 
 8621  8624     1 
 8624  8625     1 
 8624  8626     1 
 8624  8627     1 
 8627  8628     1 
 8627  8629     1 
 8627  8630     1 
 8630  8631     1 
 8630  8632     1 
 8630  8633     1 
 8633  8634     1 
 8633  8635     1 
 8633  8636     1 
 8636  8637     1 
 8636  8638     1 
 8636  8639     1 
 8639  8640     1 
 8639  8641     1 
 8641  8642     1 
 8641  8643     1 
 8643  8644     1 
 8643  8645     1 
 8643  8646     1 
 8646  8647     1 
 8646  8648     1 
 8646  8649     1 
 8649  8650     1 
 8649  8651     1 
 8649  8652     1 
 8652  8653     1 
 8652  8654     1 
 8652  8655     1 
 8655  8656     1 
 8655  8657     1 
 8655  8658     1 
 8658  8659     1 
 8658  8660     1 
 8658  8661     1 
 8661  8662     1 
 8661  8663     1 
 8661  8664     1 
 8664  8665     1 
 8664  8666     1 
 8664  8667     1 
 8668  8669     1 
 8668  8670     1 
 8668  8671     1 
 8671  8672     1 
 8671  8673     1 
 8671  8674     1 
 8674  8675     1 
 8674  8676     1 
 8674  8677     1 
 8677  8678     1 
 8677  8679     1 
 8677  8680     1 
 8680  8681     1 
 8680  8682     1 
 8680  8683     1 
 8683  8684     1 
 8683  8685     1 
 8683  8686     1 
 8686  8687     1 
 8686  8688     1 
 8686  8689     1 
 8689  8690     1 
 8689  8691     1 
 8689  8692     1 
 8692  8693     1 
 8692  8694     1 
 8692  8695     1 
 8695  8696     1 
 8695  8697     1 
 8695  8698     1 
 8698  8699     1 
 8698  8700     1 
 8698  8701     1 
 8701  8702     1 
 8701  8703     1 
 8701  8704     1 
 8704  8705     1 
 8704  8706     1 
 8704  8707     1 
 8707  8708     1 
 8707  8709     1 
 8707  8710     1 
 8711  8712     1 
 8711  8715     1 
 8711  8719     1 
 8711  8723     1 
 8712  8713     1 
 8712  8714     1 
 8712  8727     1 
 8715  8716     1 
 8715  8717     1 
 8715  8718     1 
 8719  8720     1 
 8719  8721     1 
 8719  8722     1 
 8723  8724     1 
 8723  8725     1 
 8723  8726     1 
 8727  8728     1 
 8727  8729     1 
 8727  8733     1 
 8730  8731     1 
 8730  8732     1 
 8730  8733     1 
 8730  8734     1 
 8734  8735     1 
 8735  8736     1 
 8735  8737     1 
 8735  8738     1 
 8738  8739     1 
 8738  8740     1 
 8738  8746     1 
 8740  8741     1 
 8741  8742     1 
 8741  8743     1 
 8743  8744     1 
 8743  8745     1 
 8743  8755     1 
 8746  8747     1 
 8746  8748     1 
 8746  8749     1 
 8749  8750     1 
 8750  8751     1 
 8750  8752     1 
 8752  8753     1 
 8752  8754     1 
 8752  8802     1 
 8755  8756     1 
 8755  8757     1 
 8755  8758     1 
 8758  8759     1 
 8758  8760     1 
 8758  8761     1 
 8761  8762     1 
 8761  8763     1 
 8761  8764     1 
 8764  8765     1 
 8764  8766     1 
 8764  8767     1 
 8767  8768     1 
 8767  8769     1 
 8767  8770     1 
 8770  8771     1 
 8770  8772     1 
 8770  8773     1 
 8773  8774     1 
 8773  8775     1 
 8775  8776     1 
 8775  8777     1 
 8777  8778     1 
 8777  8779     1 
 8777  8780     1 
 8780  8781     1 
 8780  8782     1 
 8780  8783     1 
 8783  8784     1 
 8783  8785     1 
 8783  8786     1 
 8786  8787     1 
 8786  8788     1 
 8786  8789     1 
 8789  8790     1 
 8789  8791     1 
 8789  8792     1 
 8792  8793     1 
 8792  8794     1 
 8792  8795     1 
 8795  8796     1 
 8795  8797     1 
 8795  8798     1 
 8798  8799     1 
 8798  8800     1 
 8798  8801     1 
 8802  8803     1 
 8802  8804     1 
 8802  8805     1 
 8805  8806     1 
 8805  8807     1 
 8805  8808     1 
 8808  8809     1 
 8808  8810     1 
 8808  8811     1 
 8811  8812     1 
 8811  8813     1 
 8811  8814     1 
 8814  8815     1 
 8814  8816     1 
 8814  8817     1 
 8817  8818     1 
 8817  8819     1 
 8817  8820     1 
 8820  8821     1 
 8820  8822     1 
 8820  8823     1 
 8823  8824     1 
 8823  8825     1 
 8823  8826     1 
 8826  8827     1 
 8826  8828     1 
 8826  8829     1 
 8829  8830     1 
 8829  8831     1 
 8829  8832     1 
 8832  8833     1 
 8832  8834     1 
 8832  8835     1 
 8835  8836     1 
 8835  8837     1 
 8835  8838     1 
 8838  8839     1 
 8838  8840     1 
 8838  8841     1 
 8841  8842     1 
 8841  8843     1 
 8841  8844     1 
 8845  8846     1 
 8845  8849     1 
 8845  8853     1 
 8845  8857     1 
 8846  8847     1 
 8846  8848     1 
 8846  8861     1 
 8849  8850     1 
 8849  8851     1 
 8849  8852     1 
 8853  8854     1 
 8853  8855     1 
 8853  8856     1 
 8857  8858     1 
 8857  8859     1 
 8857  8860     1 
 8861  8862     1 
 8861  8863     1 
 8861  8867     1 
 8864  8865     1 
 8864  8866     1 
 8864  8867     1 
 8864  8868     1 
 8868  8869     1 
 8869  8870     1 
 8869  8871     1 
 8869  8872     1 
 8872  8873     1 
 8872  8874     1 
 8872  8880     1 
 8874  8875     1 
 8875  8876     1 
 8875  8877     1 
 8877  8878     1 
 8877  8879     1 
 8877  8889     1 
 8880  8881     1 
 8880  8882     1 
 8880  8883     1 
 8883  8884     1 
 8884  8885     1 
 8884  8886     1 
 8886  8887     1 
 8886  8888     1 
 8886  8936     1 
 8889  8890     1 
 8889  8891     1 
 8889  8892     1 
 8892  8893     1 
 8892  8894     1 
 8892  8895     1 
 8895  8896     1 
 8895  8897     1 
 8895  8898     1 
 8898  8899     1 
 8898  8900     1 
 8898  8901     1 
 8901  8902     1 
 8901  8903     1 
 8901  8904     1 
 8904  8905     1 
 8904  8906     1 
 8904  8907     1 
 8907  8908     1 
 8907  8909     1 
 8909  8910     1 
 8909  8911     1 
 8911  8912     1 
 8911  8913     1 
 8911  8914     1 
 8914  8915     1 
 8914  8916     1 
 8914  8917     1 
 8917  8918     1 
 8917  8919     1 
 8917  8920     1 
 8920  8921     1 
 8920  8922     1 
 8920  8923     1 
 8923  8924     1 
 8923  8925     1 
 8923  8926     1 
 8926  8927     1 
 8926  8928     1 
 8926  8929     1 
 8929  8930     1 
 8929  8931     1 
 8929  8932     1 
 8932  8933     1 
 8932  8934     1 
 8932  8935     1 
 8936  8937     1 
 8936  8938     1 
 8936  8939     1 
 8939  8940     1 
 8939  8941     1 
 8939  8942     1 
 8942  8943     1 
 8942  8944     1 
 8942  8945     1 
 8945  8946     1 
 8945  8947     1 
 8945  8948     1 
 8948  8949     1 
 8948  8950     1 
 8948  8951     1 
 8951  8952     1 
 8951  8953     1 
 8951  8954     1 
 8954  8955     1 
 8954  8956     1 
 8954  8957     1 
 8957  8958     1 
 8957  8959     1 
 8957  8960     1 
 8960  8961     1 
 8960  8962     1 
 8960  8963     1 
 8963  8964     1 
 8963  8965     1 
 8963  8966     1 
 8966  8967     1 
 8966  8968     1 
 8966  8969     1 
 8969  8970     1 
 8969  8971     1 
 8969  8972     1 
 8972  8973     1 
 8972  8974     1 
 8972  8975     1 
 8975  8976     1 
 8975  8977     1 
 8975  8978     1 
 8979  8980     1 
 8979  8983     1 
 8979  8987     1 
 8979  8991     1 
 8980  8981     1 
 8980  8982     1 
 8980  8995     1 
 8983  8984     1 
 8983  8985     1 
 8983  8986     1 
 8987  8988     1 
 8987  8989     1 
 8987  8990     1 
 8991  8992     1 
 8991  8993     1 
 8991  8994     1 
 8995  8996     1 
 8995  8997     1 
 8995  9001     1 
 8998  8999     1 
 8998  9000     1 
 8998  9001     1 
 8998  9002     1 
 9002  9003     1 
 9003  9004     1 
 9003  9005     1 
 9003  9006     1 
 9006  9007     1 
 9006  9008     1 
 9006  9014     1 
 9008  9009     1 
 9009  9010     1 
 9009  9011     1 
 9011  9012     1 
 9011  9013     1 
 9011  9023     1 
 9014  9015     1 
 9014  9016     1 
 9014  9017     1 
 9017  9018     1 
 9018  9019     1 
 9018  9020     1 
 9020  9021     1 
 9020  9022     1 
 9020  9070     1 
 9023  9024     1 
 9023  9025     1 
 9023  9026     1 
 9026  9027     1 
 9026  9028     1 
 9026  9029     1 
 9029  9030     1 
 9029  9031     1 
 9029  9032     1 
 9032  9033     1 
 9032  9034     1 
 9032  9035     1 
 9035  9036     1 
 9035  9037     1 
 9035  9038     1 
 9038  9039     1 
 9038  9040     1 
 9038  9041     1 
 9041  9042     1 
 9041  9043     1 
 9043  9044     1 
 9043  9045     1 
 9045  9046     1 
 9045  9047     1 
 9045  9048     1 
 9048  9049     1 
 9048  9050     1 
 9048  9051     1 
 9051  9052     1 
 9051  9053     1 
 9051  9054     1 
 9054  9055     1 
 9054  9056     1 
 9054  9057     1 
 9057  9058     1 
 9057  9059     1 
 9057  9060     1 
 9060  9061     1 
 9060  9062     1 
 9060  9063     1 
 9063  9064     1 
 9063  9065     1 
 9063  9066     1 
 9066  9067     1 
 9066  9068     1 
 9066  9069     1 
 9070  9071     1 
 9070  9072     1 
 9070  9073     1 
 9073  9074     1 
 9073  9075     1 
 9073  9076     1 
 9076  9077     1 
 9076  9078     1 
 9076  9079     1 
 9079  9080     1 
 9079  9081     1 
 9079  9082     1 
 9082  9083     1 
 9082  9084     1 
 9082  9085     1 
 9085  9086     1 
 9085  9087     1 
 9085  9088     1 
 9088  9089     1 
 9088  9090     1 
 9088  9091     1 
 9091  9092     1 
 9091  9093     1 
 9091  9094     1 
 9094  9095     1 
 9094  9096     1 
 9094  9097     1 
 9097  9098     1 
 9097  9099     1 
 9097  9100     1 
 9100  9101     1 
 9100  9102     1 
 9100  9103     1 
 9103  9104     1 
 9103  9105     1 
 9103  9106     1 
 9106  9107     1 
 9106  9108     1 
 9106  9109     1 
 9109  9110     1 
 9109  9111     1 
 9109  9112     1 
 9113  9114     1 
 9113  9117     1 
 9113  9121     1 
 9113  9125     1 
 9114  9115     1 
 9114  9116     1 
 9114  9129     1 
 9117  9118     1 
 9117  9119     1 
 9117  9120     1 
 9121  9122     1 
 9121  9123     1 
 9121  9124     1 
 9125  9126     1 
 9125  9127     1 
 9125  9128     1 
 9129  9130     1 
 9129  9131     1 
 9129  9135     1 
 9132  9133     1 
 9132  9134     1 
 9132  9135     1 
 9132  9136     1 
 9136  9137     1 
 9137  9138     1 
 9137  9139     1 
 9137  9140     1 
 9140  9141     1 
 9140  9142     1 
 9140  9148     1 
 9142  9143     1 
 9143  9144     1 
 9143  9145     1 
 9145  9146     1 
 9145  9147     1 
 9145  9157     1 
 9148  9149     1 
 9148  9150     1 
 9148  9151     1 
 9151  9152     1 
 9152  9153     1 
 9152  9154     1 
 9154  9155     1 
 9154  9156     1 
 9154  9204     1 
 9157  9158     1 
 9157  9159     1 
 9157  9160     1 
 9160  9161     1 
 9160  9162     1 
 9160  9163     1 
 9163  9164     1 
 9163  9165     1 
 9163  9166     1 
 9166  9167     1 
 9166  9168     1 
 9166  9169     1 
 9169  9170     1 
 9169  9171     1 
 9169  9172     1 
 9172  9173     1 
 9172  9174     1 
 9172  9175     1 
 9175  9176     1 
 9175  9177     1 
 9177  9178     1 
 9177  9179     1 
 9179  9180     1 
 9179  9181     1 
 9179  9182     1 
 9182  9183     1 
 9182  9184     1 
 9182  9185     1 
 9185  9186     1 
 9185  9187     1 
 9185  9188     1 
 9188  9189     1 
 9188  9190     1 
 9188  9191     1 
 9191  9192     1 
 9191  9193     1 
 9191  9194     1 
 9194  9195     1 
 9194  9196     1 
 9194  9197     1 
 9197  9198     1 
 9197  9199     1 
 9197  9200     1 
 9200  9201     1 
 9200  9202     1 
 9200  9203     1 
 9204  9205     1 
 9204  9206     1 
 9204  9207     1 
 9207  9208     1 
 9207  9209     1 
 9207  9210     1 
 9210  9211     1 
 9210  9212     1 
 9210  9213     1 
 9213  9214     1 
 9213  9215     1 
 9213  9216     1 
 9216  9217     1 
 9216  9218     1 
 9216  9219     1 
 9219  9220     1 
 9219  9221     1 
 9219  9222     1 
 9222  9223     1 
 9222  9224     1 
 9222  9225     1 
 9225  9226     1 
 9225  9227     1 
 9225  9228     1 
 9228  9229     1 
 9228  9230     1 
 9228  9231     1 
 9231  9232     1 
 9231  9233     1 
 9231  9234     1 
 9234  9235     1 
 9234  9236     1 
 9234  9237     1 
 9237  9238     1 
 9237  9239     1 
 9237  9240     1 
 9240  9241     1 
 9240  9242     1 
 9240  9243     1 
 9243  9244     1 
 9243  9245     1 
 9243  9246     1 
 9247  9248     1 
 9247  9251     1 
 9247  9255     1 
 9247  9259     1 
 9248  9249     1 
 9248  9250     1 
 9248  9263     1 
 9251  9252     1 
 9251  9253     1 
 9251  9254     1 
 9255  9256     1 
 9255  9257     1 
 9255  9258     1 
 9259  9260     1 
 9259  9261     1 
 9259  9262     1 
 9263  9264     1 
 9263  9265     1 
 9263  9269     1 
 9266  9267     1 
 9266  9268     1 
 9266  9269     1 
 9266  9270     1 
 9270  9271     1 
 9271  9272     1 
 9271  9273     1 
 9271  9274     1 
 9274  9275     1 
 9274  9276     1 
 9274  9282     1 
 9276  9277     1 
 9277  9278     1 
 9277  9279     1 
 9279  9280     1 
 9279  9281     1 
 9279  9291     1 
 9282  9283     1 
 9282  9284     1 
 9282  9285     1 
 9285  9286     1 
 9286  9287     1 
 9286  9288     1 
 9288  9289     1 
 9288  9290     1 
 9288  9338     1 
 9291  9292     1 
 9291  9293     1 
 9291  9294     1 
 9294  9295     1 
 9294  9296     1 
 9294  9297     1 
 9297  9298     1 
 9297  9299     1 
 9297  9300     1 
 9300  9301     1 
 9300  9302     1 
 9300  9303     1 
 9303  9304     1 
 9303  9305     1 
 9303  9306     1 
 9306  9307     1 
 9306  9308     1 
 9306  9309     1 
 9309  9310     1 
 9309  9311     1 
 9311  9312     1 
 9311  9313     1 
 9313  9314     1 
 9313  9315     1 
 9313  9316     1 
 9316  9317     1 
 9316  9318     1 
 9316  9319     1 
 9319  9320     1 
 9319  9321     1 
 9319  9322     1 
 9322  9323     1 
 9322  9324     1 
 9322  9325     1 
 9325  9326     1 
 9325  9327     1 
 9325  9328     1 
 9328  9329     1 
 9328  9330     1 
 9328  9331     1 
 9331  9332     1 
 9331  9333     1 
 9331  9334     1 
 9334  9335     1 
 9334  9336     1 
 9334  9337     1 
 9338  9339     1 
 9338  9340     1 
 9338  9341     1 
 9341  9342     1 
 9341  9343     1 
 9341  9344     1 
 9344  9345     1 
 9344  9346     1 
 9344  9347     1 
 9347  9348     1 
 9347  9349     1 
 9347  9350     1 
 9350  9351     1 
 9350  9352     1 
 9350  9353     1 
 9353  9354     1 
 9353  9355     1 
 9353  9356     1 
 9356  9357     1 
 9356  9358     1 
 9356  9359     1 
 9359  9360     1 
 9359  9361     1 
 9359  9362     1 
 9362  9363     1 
 9362  9364     1 
 9362  9365     1 
 9365  9366     1 
 9365  9367     1 
 9365  9368     1 
 9368  9369     1 
 9368  9370     1 
 9368  9371     1 
 9371  9372     1 
 9371  9373     1 
 9371  9374     1 
 9374  9375     1 
 9374  9376     1 
 9374  9377     1 
 9377  9378     1 
 9377  9379     1 
 9377  9380     1 
 9381  9382     1 
 9381  9385     1 
 9381  9389     1 
 9381  9393     1 
 9382  9383     1 
 9382  9384     1 
 9382  9397     1 
 9385  9386     1 
 9385  9387     1 
 9385  9388     1 
 9389  9390     1 
 9389  9391     1 
 9389  9392     1 
 9393  9394     1 
 9393  9395     1 
 9393  9396     1 
 9397  9398     1 
 9397  9399     1 
 9397  9403     1 
 9400  9401     1 
 9400  9402     1 
 9400  9403     1 
 9400  9404     1 
 9404  9405     1 
 9405  9406     1 
 9405  9407     1 
 9405  9408     1 
 9408  9409     1 
 9408  9410     1 
 9408  9416     1 
 9410  9411     1 
 9411  9412     1 
 9411  9413     1 
 9413  9414     1 
 9413  9415     1 
 9413  9425     1 
 9416  9417     1 
 9416  9418     1 
 9416  9419     1 
 9419  9420     1 
 9420  9421     1 
 9420  9422     1 
 9422  9423     1 
 9422  9424     1 
 9422  9472     1 
 9425  9426     1 
 9425  9427     1 
 9425  9428     1 
 9428  9429     1 
 9428  9430     1 
 9428  9431     1 
 9431  9432     1 
 9431  9433     1 
 9431  9434     1 
 9434  9435     1 
 9434  9436     1 
 9434  9437     1 
 9437  9438     1 
 9437  9439     1 
 9437  9440     1 
 9440  9441     1 
 9440  9442     1 
 9440  9443     1 
 9443  9444     1 
 9443  9445     1 
 9445  9446     1 
 9445  9447     1 
 9447  9448     1 
 9447  9449     1 
 9447  9450     1 
 9450  9451     1 
 9450  9452     1 
 9450  9453     1 
 9453  9454     1 
 9453  9455     1 
 9453  9456     1 
 9456  9457     1 
 9456  9458     1 
 9456  9459     1 
 9459  9460     1 
 9459  9461     1 
 9459  9462     1 
 9462  9463     1 
 9462  9464     1 
 9462  9465     1 
 9465  9466     1 
 9465  9467     1 
 9465  9468     1 
 9468  9469     1 
 9468  9470     1 
 9468  9471     1 
 9472  9473     1 
 9472  9474     1 
 9472  9475     1 
 9475  9476     1 
 9475  9477     1 
 9475  9478     1 
 9478  9479     1 
 9478  9480     1 
 9478  9481     1 
 9481  9482     1 
 9481  9483     1 
 9481  9484     1 
 9484  9485     1 
 9484  9486     1 
 9484  9487     1 
 9487  9488     1 
 9487  9489     1 
 9487  9490     1 
 9490  9491     1 
 9490  9492     1 
 9490  9493     1 
 9493  9494     1 
 9493  9495     1 
 9493  9496     1 
 9496  9497     1 
 9496  9498     1 
 9496  9499     1 
 9499  9500     1 
 9499  9501     1 
 9499  9502     1 
 9502  9503     1 
 9502  9504     1 
 9502  9505     1 
 9505  9506     1 
 9505  9507     1 
 9505  9508     1 
 9508  9509     1 
 9508  9510     1 
 9508  9511     1 
 9511  9512     1 
 9511  9513     1 
 9511  9514     1 
 9515  9516     1 
 9515  9519     1 
 9515  9523     1 
 9515  9527     1 
 9516  9517     1 
 9516  9518     1 
 9516  9531     1 
 9519  9520     1 
 9519  9521     1 
 9519  9522     1 
 9523  9524     1 
 9523  9525     1 
 9523  9526     1 
 9527  9528     1 
 9527  9529     1 
 9527  9530     1 
 9531  9532     1 
 9531  9533     1 
 9531  9537     1 
 9534  9535     1 
 9534  9536     1 
 9534  9537     1 
 9534  9538     1 
 9538  9539     1 
 9539  9540     1 
 9539  9541     1 
 9539  9542     1 
 9542  9543     1 
 9542  9544     1 
 9542  9550     1 
 9544  9545     1 
 9545  9546     1 
 9545  9547     1 
 9547  9548     1 
 9547  9549     1 
 9547  9559     1 
 9550  9551     1 
 9550  9552     1 
 9550  9553     1 
 9553  9554     1 
 9554  9555     1 
 9554  9556     1 
 9556  9557     1 
 9556  9558     1 
 9556  9606     1 
 9559  9560     1 
 9559  9561     1 
 9559  9562     1 
 9562  9563     1 
 9562  9564     1 
 9562  9565     1 
 9565  9566     1 
 9565  9567     1 
 9565  9568     1 
 9568  9569     1 
 9568  9570     1 
 9568  9571     1 
 9571  9572     1 
 9571  9573     1 
 9571  9574     1 
 9574  9575     1 
 9574  9576     1 
 9574  9577     1 
 9577  9578     1 
 9577  9579     1 
 9579  9580     1 
 9579  9581     1 
 9581  9582     1 
 9581  9583     1 
 9581  9584     1 
 9584  9585     1 
 9584  9586     1 
 9584  9587     1 
 9587  9588     1 
 9587  9589     1 
 9587  9590     1 
 9590  9591     1 
 9590  9592     1 
 9590  9593     1 
 9593  9594     1 
 9593  9595     1 
 9593  9596     1 
 9596  9597     1 
 9596  9598     1 
 9596  9599     1 
 9599  9600     1 
 9599  9601     1 
 9599  9602     1 
 9602  9603     1 
 9602  9604     1 
 9602  9605     1 
 9606  9607     1 
 9606  9608     1 
 9606  9609     1 
 9609  9610     1 
 9609  9611     1 
 9609  9612     1 
 9612  9613     1 
 9612  9614     1 
 9612  9615     1 
 9615  9616     1 
 9615  9617     1 
 9615  9618     1 
 9618  9619     1 
 9618  9620     1 
 9618  9621     1 
 9621  9622     1 
 9621  9623     1 
 9621  9624     1 
 9624  9625     1 
 9624  9626     1 
 9624  9627     1 
 9627  9628     1 
 9627  9629     1 
 9627  9630     1 
 9630  9631     1 
 9630  9632     1 
 9630  9633     1 
 9633  9634     1 
 9633  9635     1 
 9633  9636     1 
 9636  9637     1 
 9636  9638     1 
 9636  9639     1 
 9639  9640     1 
 9639  9641     1 
 9639  9642     1 
 9642  9643     1 
 9642  9644     1 
 9642  9645     1 
 9645  9646     1 
 9645  9647     1 
 9645  9648     1 
 9649  9650     1 
 9649  9653     1 
 9649  9657     1 
 9649  9661     1 
 9650  9651     1 
 9650  9652     1 
 9650  9665     1 
 9653  9654     1 
 9653  9655     1 
 9653  9656     1 
 9657  9658     1 
 9657  9659     1 
 9657  9660     1 
 9661  9662     1 
 9661  9663     1 
 9661  9664     1 
 9665  9666     1 
 9665  9667     1 
 9665  9671     1 
 9668  9669     1 
 9668  9670     1 
 9668  9671     1 
 9668  9672     1 
 9672  9673     1 
 9673  9674     1 
 9673  9675     1 
 9673  9676     1 
 9676  9677     1 
 9676  9678     1 
 9676  9684     1 
 9678  9679     1 
 9679  9680     1 
 9679  9681     1 
 9681  9682     1 
 9681  9683     1 
 9681  9693     1 
 9684  9685     1 
 9684  9686     1 
 9684  9687     1 
 9687  9688     1 
 9688  9689     1 
 9688  9690     1 
 9690  9691     1 
 9690  9692     1 
 9690  9740     1 
 9693  9694     1 
 9693  9695     1 
 9693  9696     1 
 9696  9697     1 
 9696  9698     1 
 9696  9699     1 
 9699  9700     1 
 9699  9701     1 
 9699  9702     1 
 9702  9703     1 
 9702  9704     1 
 9702  9705     1 
 9705  9706     1 
 9705  9707     1 
 9705  9708     1 
 9708  9709     1 
 9708  9710     1 
 9708  9711     1 
 9711  9712     1 
 9711  9713     1 
 9713  9714     1 
 9713  9715     1 
 9715  9716     1 
 9715  9717     1 
 9715  9718     1 
 9718  9719     1 
 9718  9720     1 
 9718  9721     1 
 9721  9722     1 
 9721  9723     1 
 9721  9724     1 
 9724  9725     1 
 9724  9726     1 
 9724  9727     1 
 9727  9728     1 
 9727  9729     1 
 9727  9730     1 
 9730  9731     1 
 9730  9732     1 
 9730  9733     1 
 9733  9734     1 
 9733  9735     1 
 9733  9736     1 
 9736  9737     1 
 9736  9738     1 
 9736  9739     1 
 9740  9741     1 
 9740  9742     1 
 9740  9743     1 
 9743  9744     1 
 9743  9745     1 
 9743  9746     1 
 9746  9747     1 
 9746  9748     1 
 9746  9749     1 
 9749  9750     1 
 9749  9751     1 
 9749  9752     1 
 9752  9753     1 
 9752  9754     1 
 9752  9755     1 
 9755  9756     1 
 9755  9757     1 
 9755  9758     1 
 9758  9759     1 
 9758  9760     1 
 9758  9761     1 
 9761  9762     1 
 9761  9763     1 
 9761  9764     1 
 9764  9765     1 
 9764  9766     1 
 9764  9767     1 
 9767  9768     1 
 9767  9769     1 
 9767  9770     1 
 9770  9771     1 
 9770  9772     1 
 9770  9773     1 
 9773  9774     1 
 9773  9775     1 
 9773  9776     1 
 9776  9777     1 
 9776  9778     1 
 9776  9779     1 
 9779  9780     1 
 9779  9781     1 
 9779  9782     1 
 9783  9784     1 
 9783  9787     1 
 9783  9791     1 
 9783  9795     1 
 9784  9785     1 
 9784  9786     1 
 9784  9799     1 
 9787  9788     1 
 9787  9789     1 
 9787  9790     1 
 9791  9792     1 
 9791  9793     1 
 9791  9794     1 
 9795  9796     1 
 9795  9797     1 
 9795  9798     1 
 9799  9800     1 
 9799  9801     1 
 9799  9805     1 
 9802  9803     1 
 9802  9804     1 
 9802  9805     1 
 9802  9806     1 
 9806  9807     1 
 9807  9808     1 
 9807  9809     1 
 9807  9810     1 
 9810  9811     1 
 9810  9812     1 
 9810  9818     1 
 9812  9813     1 
 9813  9814     1 
 9813  9815     1 
 9815  9816     1 
 9815  9817     1 
 9815  9827     1 
 9818  9819     1 
 9818  9820     1 
 9818  9821     1 
 9821  9822     1 
 9822  9823     1 
 9822  9824     1 
 9824  9825     1 
 9824  9826     1 
 9824  9874     1 
 9827  9828     1 
 9827  9829     1 
 9827  9830     1 
 9830  9831     1 
 9830  9832     1 
 9830  9833     1 
 9833  9834     1 
 9833  9835     1 
 9833  9836     1 
 9836  9837     1 
 9836  9838     1 
 9836  9839     1 
 9839  9840     1 
 9839  9841     1 
 9839  9842     1 
 9842  9843     1 
 9842  9844     1 
 9842  9845     1 
 9845  9846     1 
 9845  9847     1 
 9847  9848     1 
 9847  9849     1 
 9849  9850     1 
 9849  9851     1 
 9849  9852     1 
 9852  9853     1 
 9852  9854     1 
 9852  9855     1 
 9855  9856     1 
 9855  9857     1 
 9855  9858     1 
 9858  9859     1 
 9858  9860     1 
 9858  9861     1 
 9861  9862     1 
 9861  9863     1 
 9861  9864     1 
 9864  9865     1 
 9864  9866     1 
 9864  9867     1 
 9867  9868     1 
 9867  9869     1 
 9867  9870     1 
 9870  9871     1 
 9870  9872     1 
 9870  9873     1 
 9874  9875     1 
 9874  9876     1 
 9874  9877     1 
 9877  9878     1 
 9877  9879     1 
 9877  9880     1 
 9880  9881     1 
 9880  9882     1 
 9880  9883     1 
 9883  9884     1 
 9883  9885     1 
 9883  9886     1 
 9886  9887     1 
 9886  9888     1 
 9886  9889     1 
 9889  9890     1 
 9889  9891     1 
 9889  9892     1 
 9892  9893     1 
 9892  9894     1 
 9892  9895     1 
 9895  9896     1 
 9895  9897     1 
 9895  9898     1 
 9898  9899     1 
 9898  9900     1 
 9898  9901     1 
 9901  9902     1 
 9901  9903     1 
 9901  9904     1 
 9904  9905     1 
 9904  9906     1 
 9904  9907     1 
 9907  9908     1 
 9907  9909     1 
 9907  9910     1 
 9910  9911     1 
 9910  9912     1 
 9910  9913     1 
 9913  9914     1 
 9913  9915     1 
 9913  9916     1 
 9917  9918     1 
 9917  9921     1 
 9917  9925     1 
 9917  9929     1 
 9918  9919     1 
 9918  9920     1 
 9918  9933     1 
 9921  9922     1 
 9921  9923     1 
 9921  9924     1 
 9925  9926     1 
 9925  9927     1 
 9925  9928     1 
 9929  9930     1 
 9929  9931     1 
 9929  9932     1 
 9933  9934     1 
 9933  9935     1 
 9933  9939     1 
 9936  9937     1 
 9936  9938     1 
 9936  9939     1 
 9936  9940     1 
 9940  9941     1 
 9941  9942     1 
 9941  9943     1 
 9941  9944     1 
 9944  9945     1 
 9944  9946     1 
 9944  9952     1 
 9946  9947     1 
 9947  9948     1 
 9947  9949     1 
 9949  9950     1 
 9949  9951     1 
 9949  9961     1 
 9952  9953     1 
 9952  9954     1 
 9952  9955     1 
 9955  9956     1 
 9956  9957     1 
 9956  9958     1 
 9958  9959     1 
 9958  9960     1 
 9958 10008     1 
 9961  9962     1 
 9961  9963     1 
 9961  9964     1 
 9964  9965     1 
 9964  9966     1 
 9964  9967     1 
 9967  9968     1 
 9967  9969     1 
 9967  9970     1 
 9970  9971     1 
 9970  9972     1 
 9970  9973     1 
 9973  9974     1 
 9973  9975     1 
 9973  9976     1 
 9976  9977     1 
 9976  9978     1 
 9976  9979     1 
 9979  9980     1 
 9979  9981     1 
 9981  9982     1 
 9981  9983     1 
 9983  9984     1 
 9983  9985     1 
 9983  9986     1 
 9986  9987     1 
 9986  9988     1 
 9986  9989     1 
 9989  9990     1 
 9989  9991     1 
 9989  9992     1 
 9992  9993     1 
 9992  9994     1 
 9992  9995     1 
 9995  9996     1 
 9995  9997     1 
 9995  9998     1 
 9998  9999     1 
 9998 10000     1 
 9998 10001     1 
10001 10002     1 
10001 10003     1 
10001 10004     1 
10004 10005     1 
10004 10006     1 
10004 10007     1 
10008 10009     1 
10008 10010     1 
10008 10011     1 
10011 10012     1 
10011 10013     1 
10011 10014     1 
10014 10015     1 
10014 10016     1 
10014 10017     1 
10017 10018     1 
10017 10019     1 
10017 10020     1 
10020 10021     1 
10020 10022     1 
10020 10023     1 
10023 10024     1 
10023 10025     1 
10023 10026     1 
10026 10027     1 
10026 10028     1 
10026 10029     1 
10029 10030     1 
10029 10031     1 
10029 10032     1 
10032 10033     1 
10032 10034     1 
10032 10035     1 
10035 10036     1 
10035 10037     1 
10035 10038     1 
10038 10039     1 
10038 10040     1 
10038 10041     1 
10041 10042     1 
10041 10043     1 
10041 10044     1 
10044 10045     1 
10044 10046     1 
10044 10047     1 
10047 10048     1 
10047 10049     1 
10047 10050     1 
10051 10052     1 
10051 10055     1 
10051 10059     1 
10051 10063     1 
10052 10053     1 
10052 10054     1 
10052 10067     1 
10055 10056     1 
10055 10057     1 
10055 10058     1 
10059 10060     1 
10059 10061     1 
10059 10062     1 
10063 10064     1 
10063 10065     1 
10063 10066     1 
10067 10068     1 
10067 10069     1 
10067 10073     1 
10070 10071     1 
10070 10072     1 
10070 10073     1 
10070 10074     1 
10074 10075     1 
10075 10076     1 
10075 10077     1 
10075 10078     1 
10078 10079     1 
10078 10080     1 
10078 10086     1 
10080 10081     1 
10081 10082     1 
10081 10083     1 
10083 10084     1 
10083 10085     1 
10083 10095     1 
10086 10087     1 
10086 10088     1 
10086 10089     1 
10089 10090     1 
10090 10091     1 
10090 10092     1 
10092 10093     1 
10092 10094     1 
10092 10142     1 
10095 10096     1 
10095 10097     1 
10095 10098     1 
10098 10099     1 
10098 10100     1 
10098 10101     1 
10101 10102     1 
10101 10103     1 
10101 10104     1 
10104 10105     1 
10104 10106     1 
10104 10107     1 
10107 10108     1 
10107 10109     1 
10107 10110     1 
10110 10111     1 
10110 10112     1 
10110 10113     1 
10113 10114     1 
10113 10115     1 
10115 10116     1 
10115 10117     1 
10117 10118     1 
10117 10119     1 
10117 10120     1 
10120 10121     1 
10120 10122     1 
10120 10123     1 
10123 10124     1 
10123 10125     1 
10123 10126     1 
10126 10127     1 
10126 10128     1 
10126 10129     1 
10129 10130     1 
10129 10131     1 
10129 10132     1 
10132 10133     1 
10132 10134     1 
10132 10135     1 
10135 10136     1 
10135 10137     1 
10135 10138     1 
10138 10139     1 
10138 10140     1 
10138 10141     1 
10142 10143     1 
10142 10144     1 
10142 10145     1 
10145 10146     1 
10145 10147     1 
10145 10148     1 
10148 10149     1 
10148 10150     1 
10148 10151     1 
10151 10152     1 
10151 10153     1 
10151 10154     1 
10154 10155     1 
10154 10156     1 
10154 10157     1 
10157 10158     1 
10157 10159     1 
10157 10160     1 
10160 10161     1 
10160 10162     1 
10160 10163     1 
10163 10164     1 
10163 10165     1 
10163 10166     1 
10166 10167     1 
10166 10168     1 
10166 10169     1 
10169 10170     1 
10169 10171     1 
10169 10172     1 
10172 10173     1 
10172 10174     1 
10172 10175     1 
10175 10176     1 
10175 10177     1 
10175 10178     1 
10178 10179     1 
10178 10180     1 
10178 10181     1 
10181 10182     1 
10181 10183     1 
10181 10184     1 
10185 10186     1 
10185 10189     1 
10185 10193     1 
10185 10197     1 
10186 10187     1 
10186 10188     1 
10186 10201     1 
10189 10190     1 
10189 10191     1 
10189 10192     1 
10193 10194     1 
10193 10195     1 
10193 10196     1 
10197 10198     1 
10197 10199     1 
10197 10200     1 
10201 10202     1 
10201 10203     1 
10201 10207     1 
10204 10205     1 
10204 10206     1 
10204 10207     1 
10204 10208     1 
10208 10209     1 
10209 10210     1 
10209 10211     1 
10209 10212     1 
10212 10213     1 
10212 10214     1 
10212 10220     1 
10214 10215     1 
10215 10216     1 
10215 10217     1 
10217 10218     1 
10217 10219     1 
10217 10229     1 
10220 10221     1 
10220 10222     1 
10220 10223     1 
10223 10224     1 
10224 10225     1 
10224 10226     1 
10226 10227     1 
10226 10228     1 
10226 10276     1 
10229 10230     1 
10229 10231     1 
10229 10232     1 
10232 10233     1 
10232 10234     1 
10232 10235     1 
10235 10236     1 
10235 10237     1 
10235 10238     1 
10238 10239     1 
10238 10240     1 
10238 10241     1 
10241 10242     1 
10241 10243     1 
10241 10244     1 
10244 10245     1 
10244 10246     1 
10244 10247     1 
10247 10248     1 
10247 10249     1 
10249 10250     1 
10249 10251     1 
10251 10252     1 
10251 10253     1 
10251 10254     1 
10254 10255     1 
10254 10256     1 
10254 10257     1 
10257 10258     1 
10257 10259     1 
10257 10260     1 
10260 10261     1 
10260 10262     1 
10260 10263     1 
10263 10264     1 
10263 10265     1 
10263 10266     1 
10266 10267     1 
10266 10268     1 
10266 10269     1 
10269 10270     1 
10269 10271     1 
10269 10272     1 
10272 10273     1 
10272 10274     1 
10272 10275     1 
10276 10277     1 
10276 10278     1 
10276 10279     1 
10279 10280     1 
10279 10281     1 
10279 10282     1 
10282 10283     1 
10282 10284     1 
10282 10285     1 
10285 10286     1 
10285 10287     1 
10285 10288     1 
10288 10289     1 
10288 10290     1 
10288 10291     1 
10291 10292     1 
10291 10293     1 
10291 10294     1 
10294 10295     1 
10294 10296     1 
10294 10297     1 
10297 10298     1 
10297 10299     1 
10297 10300     1 
10300 10301     1 
10300 10302     1 
10300 10303     1 
10303 10304     1 
10303 10305     1 
10303 10306     1 
10306 10307     1 
10306 10308     1 
10306 10309     1 
10309 10310     1 
10309 10311     1 
10309 10312     1 
10312 10313     1 
10312 10314     1 
10312 10315     1 
10315 10316     1 
10315 10317     1 
10315 10318     1 
10319 10320     1 
10319 10323     1 
10319 10327     1 
10319 10331     1 
10320 10321     1 
10320 10322     1 
10320 10335     1 
10323 10324     1 
10323 10325     1 
10323 10326     1 
10327 10328     1 
10327 10329     1 
10327 10330     1 
10331 10332     1 
10331 10333     1 
10331 10334     1 
10335 10336     1 
10335 10337     1 
10335 10341     1 
10338 10339     1 
10338 10340     1 
10338 10341     1 
10338 10342     1 
10342 10343     1 
10343 10344     1 
10343 10345     1 
10343 10346     1 
10346 10347     1 
10346 10348     1 
10346 10354     1 
10348 10349     1 
10349 10350     1 
10349 10351     1 
10351 10352     1 
10351 10353     1 
10351 10363     1 
10354 10355     1 
10354 10356     1 
10354 10357     1 
10357 10358     1 
10358 10359     1 
10358 10360     1 
10360 10361     1 
10360 10362     1 
10360 10410     1 
10363 10364     1 
10363 10365     1 
10363 10366     1 
10366 10367     1 
10366 10368     1 
10366 10369     1 
10369 10370     1 
10369 10371     1 
10369 10372     1 
10372 10373     1 
10372 10374     1 
10372 10375     1 
10375 10376     1 
10375 10377     1 
10375 10378     1 
10378 10379     1 
10378 10380     1 
10378 10381     1 
10381 10382     1 
10381 10383     1 
10383 10384     1 
10383 10385     1 
10385 10386     1 
10385 10387     1 
10385 10388     1 
10388 10389     1 
10388 10390     1 
10388 10391     1 
10391 10392     1 
10391 10393     1 
10391 10394     1 
10394 10395     1 
10394 10396     1 
10394 10397     1 
10397 10398     1 
10397 10399     1 
10397 10400     1 
10400 10401     1 
10400 10402     1 
10400 10403     1 
10403 10404     1 
10403 10405     1 
10403 10406     1 
10406 10407     1 
10406 10408     1 
10406 10409     1 
10410 10411     1 
10410 10412     1 
10410 10413     1 
10413 10414     1 
10413 10415     1 
10413 10416     1 
10416 10417     1 
10416 10418     1 
10416 10419     1 
10419 10420     1 
10419 10421     1 
10419 10422     1 
10422 10423     1 
10422 10424     1 
10422 10425     1 
10425 10426     1 
10425 10427     1 
10425 10428     1 
10428 10429     1 
10428 10430     1 
10428 10431     1 
10431 10432     1 
10431 10433     1 
10431 10434     1 
10434 10435     1 
10434 10436     1 
10434 10437     1 
10437 10438     1 
10437 10439     1 
10437 10440     1 
10440 10441     1 
10440 10442     1 
10440 10443     1 
10443 10444     1 
10443 10445     1 
10443 10446     1 
10446 10447     1 
10446 10448     1 
10446 10449     1 
10449 10450     1 
10449 10451     1 
10449 10452     1 
10453 10454     1 
10453 10457     1 
10453 10461     1 
10453 10465     1 
10454 10455     1 
10454 10456     1 
10454 10469     1 
10457 10458     1 
10457 10459     1 
10457 10460     1 
10461 10462     1 
10461 10463     1 
10461 10464     1 
10465 10466     1 
10465 10467     1 
10465 10468     1 
10469 10470     1 
10469 10471     1 
10469 10475     1 
10472 10473     1 
10472 10474     1 
10472 10475     1 
10472 10476     1 
10476 10477     1 
10477 10478     1 
10477 10479     1 
10477 10480     1 
10480 10481     1 
10480 10482     1 
10480 10488     1 
10482 10483     1 
10483 10484     1 
10483 10485     1 
10485 10486     1 
10485 10487     1 
10485 10497     1 
10488 10489     1 
10488 10490     1 
10488 10491     1 
10491 10492     1 
10492 10493     1 
10492 10494     1 
10494 10495     1 
10494 10496     1 
10494 10544     1 
10497 10498     1 
10497 10499     1 
10497 10500     1 
10500 10501     1 
10500 10502     1 
10500 10503     1 
10503 10504     1 
10503 10505     1 
10503 10506     1 
10506 10507     1 
10506 10508     1 
10506 10509     1 
10509 10510     1 
10509 10511     1 
10509 10512     1 
10512 10513     1 
10512 10514     1 
10512 10515     1 
10515 10516     1 
10515 10517     1 
10517 10518     1 
10517 10519     1 
10519 10520     1 
10519 10521     1 
10519 10522     1 
10522 10523     1 
10522 10524     1 
10522 10525     1 
10525 10526     1 
10525 10527     1 
10525 10528     1 
10528 10529     1 
10528 10530     1 
10528 10531     1 
10531 10532     1 
10531 10533     1 
10531 10534     1 
10534 10535     1 
10534 10536     1 
10534 10537     1 
10537 10538     1 
10537 10539     1 
10537 10540     1 
10540 10541     1 
10540 10542     1 
10540 10543     1 
10544 10545     1 
10544 10546     1 
10544 10547     1 
10547 10548     1 
10547 10549     1 
10547 10550     1 
10550 10551     1 
10550 10552     1 
10550 10553     1 
10553 10554     1 
10553 10555     1 
10553 10556     1 
10556 10557     1 
10556 10558     1 
10556 10559     1 
10559 10560     1 
10559 10561     1 
10559 10562     1 
10562 10563     1 
10562 10564     1 
10562 10565     1 
10565 10566     1 
10565 10567     1 
10565 10568     1 
10568 10569     1 
10568 10570     1 
10568 10571     1 
10571 10572     1 
10571 10573     1 
10571 10574     1 
10574 10575     1 
10574 10576     1 
10574 10577     1 
10577 10578     1 
10577 10579     1 
10577 10580     1 
10580 10581     1 
10580 10582     1 
10580 10583     1 
10583 10584     1 
10583 10585     1 
10583 10586     1 
10587 10588     1 
10587 10591     1 
10587 10595     1 
10587 10599     1 
10588 10589     1 
10588 10590     1 
10588 10603     1 
10591 10592     1 
10591 10593     1 
10591 10594     1 
10595 10596     1 
10595 10597     1 
10595 10598     1 
10599 10600     1 
10599 10601     1 
10599 10602     1 
10603 10604     1 
10603 10605     1 
10603 10609     1 
10606 10607     1 
10606 10608     1 
10606 10609     1 
10606 10610     1 
10610 10611     1 
10611 10612     1 
10611 10613     1 
10611 10614     1 
10614 10615     1 
10614 10616     1 
10614 10622     1 
10616 10617     1 
10617 10618     1 
10617 10619     1 
10619 10620     1 
10619 10621     1 
10619 10631     1 
10622 10623     1 
10622 10624     1 
10622 10625     1 
10625 10626     1 
10626 10627     1 
10626 10628     1 
10628 10629     1 
10628 10630     1 
10628 10678     1 
10631 10632     1 
10631 10633     1 
10631 10634     1 
10634 10635     1 
10634 10636     1 
10634 10637     1 
10637 10638     1 
10637 10639     1 
10637 10640     1 
10640 10641     1 
10640 10642     1 
10640 10643     1 
10643 10644     1 
10643 10645     1 
10643 10646     1 
10646 10647     1 
10646 10648     1 
10646 10649     1 
10649 10650     1 
10649 10651     1 
10651 10652     1 
10651 10653     1 
10653 10654     1 
10653 10655     1 
10653 10656     1 
10656 10657     1 
10656 10658     1 
10656 10659     1 
10659 10660     1 
10659 10661     1 
10659 10662     1 
10662 10663     1 
10662 10664     1 
10662 10665     1 
10665 10666     1 
10665 10667     1 
10665 10668     1 
10668 10669     1 
10668 10670     1 
10668 10671     1 
10671 10672     1 
10671 10673     1 
10671 10674     1 
10674 10675     1 
10674 10676     1 
10674 10677     1 
10678 10679     1 
10678 10680     1 
10678 10681     1 
10681 10682     1 
10681 10683     1 
10681 10684     1 
10684 10685     1 
10684 10686     1 
10684 10687     1 
10687 10688     1 
10687 10689     1 
10687 10690     1 
10690 10691     1 
10690 10692     1 
10690 10693     1 
10693 10694     1 
10693 10695     1 
10693 10696     1 
10696 10697     1 
10696 10698     1 
10696 10699     1 
10699 10700     1 
10699 10701     1 
10699 10702     1 
10702 10703     1 
10702 10704     1 
10702 10705     1 
10705 10706     1 
10705 10707     1 
10705 10708     1 
10708 10709     1 
10708 10710     1 
10708 10711     1 
10711 10712     1 
10711 10713     1 
10711 10714     1 
10714 10715     1 
10714 10716     1 
10714 10717     1 
10717 10718     1 
10717 10719     1 
10717 10720     1 
10721 10722     1 
10721 10725     1 
10721 10729     1 
10721 10733     1 
10722 10723     1 
10722 10724     1 
10722 10737     1 
10725 10726     1 
10725 10727     1 
10725 10728     1 
10729 10730     1 
10729 10731     1 
10729 10732     1 
10733 10734     1 
10733 10735     1 
10733 10736     1 
10737 10738     1 
10737 10739     1 
10737 10743     1 
10740 10741     1 
10740 10742     1 
10740 10743     1 
10740 10744     1 
10744 10745     1 
10745 10746     1 
10745 10747     1 
10745 10748     1 
10748 10749     1 
10748 10750     1 
10748 10756     1 
10750 10751     1 
10751 10752     1 
10751 10753     1 
10753 10754     1 
10753 10755     1 
10753 10765     1 
10756 10757     1 
10756 10758     1 
10756 10759     1 
10759 10760     1 
10760 10761     1 
10760 10762     1 
10762 10763     1 
10762 10764     1 
10762 10812     1 
10765 10766     1 
10765 10767     1 
10765 10768     1 
10768 10769     1 
10768 10770     1 
10768 10771     1 
10771 10772     1 
10771 10773     1 
10771 10774     1 
10774 10775     1 
10774 10776     1 
10774 10777     1 
10777 10778     1 
10777 10779     1 
10777 10780     1 
10780 10781     1 
10780 10782     1 
10780 10783     1 
10783 10784     1 
10783 10785     1 
10785 10786     1 
10785 10787     1 
10787 10788     1 
10787 10789     1 
10787 10790     1 
10790 10791     1 
10790 10792     1 
10790 10793     1 
10793 10794     1 
10793 10795     1 
10793 10796     1 
10796 10797     1 
10796 10798     1 
10796 10799     1 
10799 10800     1 
10799 10801     1 
10799 10802     1 
10802 10803     1 
10802 10804     1 
10802 10805     1 
10805 10806     1 
10805 10807     1 
10805 10808     1 
10808 10809     1 
10808 10810     1 
10808 10811     1 
10812 10813     1 
10812 10814     1 
10812 10815     1 
10815 10816     1 
10815 10817     1 
10815 10818     1 
10818 10819     1 
10818 10820     1 
10818 10821     1 
10821 10822     1 
10821 10823     1 
10821 10824     1 
10824 10825     1 
10824 10826     1 
10824 10827     1 
10827 10828     1 
10827 10829     1 
10827 10830     1 
10830 10831     1 
10830 10832     1 
10830 10833     1 
10833 10834     1 
10833 10835     1 
10833 10836     1 
10836 10837     1 
10836 10838     1 
10836 10839     1 
10839 10840     1 
10839 10841     1 
10839 10842     1 
10842 10843     1 
10842 10844     1 
10842 10845     1 
10845 10846     1 
10845 10847     1 
10845 10848     1 
10848 10849     1 
10848 10850     1 
10848 10851     1 
10851 10852     1 
10851 10853     1 
10851 10854     1 
10855 10856     1 
10855 10859     1 
10855 10863     1 
10855 10867     1 
10856 10857     1 
10856 10858     1 
10856 10871     1 
10859 10860     1 
10859 10861     1 
10859 10862     1 
10863 10864     1 
10863 10865     1 
10863 10866     1 
10867 10868     1 
10867 10869     1 
10867 10870     1 
10871 10872     1 
10871 10873     1 
10871 10877     1 
10874 10875     1 
10874 10876     1 
10874 10877     1 
10874 10878     1 
10878 10879     1 
10879 10880     1 
10879 10881     1 
10879 10882     1 
10882 10883     1 
10882 10884     1 
10882 10890     1 
10884 10885     1 
10885 10886     1 
10885 10887     1 
10887 10888     1 
10887 10889     1 
10887 10899     1 
10890 10891     1 
10890 10892     1 
10890 10893     1 
10893 10894     1 
10894 10895     1 
10894 10896     1 
10896 10897     1 
10896 10898     1 
10896 10946     1 
10899 10900     1 
10899 10901     1 
10899 10902     1 
10902 10903     1 
10902 10904     1 
10902 10905     1 
10905 10906     1 
10905 10907     1 
10905 10908     1 
10908 10909     1 
10908 10910     1 
10908 10911     1 
10911 10912     1 
10911 10913     1 
10911 10914     1 
10914 10915     1 
10914 10916     1 
10914 10917     1 
10917 10918     1 
10917 10919     1 
10919 10920     1 
10919 10921     1 
10921 10922     1 
10921 10923     1 
10921 10924     1 
10924 10925     1 
10924 10926     1 
10924 10927     1 
10927 10928     1 
10927 10929     1 
10927 10930     1 
10930 10931     1 
10930 10932     1 
10930 10933     1 
10933 10934     1 
10933 10935     1 
10933 10936     1 
10936 10937     1 
10936 10938     1 
10936 10939     1 
10939 10940     1 
10939 10941     1 
10939 10942     1 
10942 10943     1 
10942 10944     1 
10942 10945     1 
10946 10947     1 
10946 10948     1 
10946 10949     1 
10949 10950     1 
10949 10951     1 
10949 10952     1 
10952 10953     1 
10952 10954     1 
10952 10955     1 
10955 10956     1 
10955 10957     1 
10955 10958     1 
10958 10959     1 
10958 10960     1 
10958 10961     1 
10961 10962     1 
10961 10963     1 
10961 10964     1 
10964 10965     1 
10964 10966     1 
10964 10967     1 
10967 10968     1 
10967 10969     1 
10967 10970     1 
10970 10971     1 
10970 10972     1 
10970 10973     1 
10973 10974     1 
10973 10975     1 
10973 10976     1 
10976 10977     1 
10976 10978     1 
10976 10979     1 
10979 10980     1 
10979 10981     1 
10979 10982     1 
10982 10983     1 
10982 10984     1 
10982 10985     1 
10985 10986     1 
10985 10987     1 
10985 10988     1 
10989 10990     1 
10989 10993     1 
10989 10997     1 
10989 11001     1 
10990 10991     1 
10990 10992     1 
10990 11005     1 
10993 10994     1 
10993 10995     1 
10993 10996     1 
10997 10998     1 
10997 10999     1 
10997 11000     1 
11001 11002     1 
11001 11003     1 
11001 11004     1 
11005 11006     1 
11005 11007     1 
11005 11011     1 
11008 11009     1 
11008 11010     1 
11008 11011     1 
11008 11012     1 
11012 11013     1 
11013 11014     1 
11013 11015     1 
11013 11016     1 
11016 11017     1 
11016 11018     1 
11016 11024     1 
11018 11019     1 
11019 11020     1 
11019 11021     1 
11021 11022     1 
11021 11023     1 
11021 11033     1 
11024 11025     1 
11024 11026     1 
11024 11027     1 
11027 11028     1 
11028 11029     1 
11028 11030     1 
11030 11031     1 
11030 11032     1 
11030 11080     1 
11033 11034     1 
11033 11035     1 
11033 11036     1 
11036 11037     1 
11036 11038     1 
11036 11039     1 
11039 11040     1 
11039 11041     1 
11039 11042     1 
11042 11043     1 
11042 11044     1 
11042 11045     1 
11045 11046     1 
11045 11047     1 
11045 11048     1 
11048 11049     1 
11048 11050     1 
11048 11051     1 
11051 11052     1 
11051 11053     1 
11053 11054     1 
11053 11055     1 
11055 11056     1 
11055 11057     1 
11055 11058     1 
11058 11059     1 
11058 11060     1 
11058 11061     1 
11061 11062     1 
11061 11063     1 
11061 11064     1 
11064 11065     1 
11064 11066     1 
11064 11067     1 
11067 11068     1 
11067 11069     1 
11067 11070     1 
11070 11071     1 
11070 11072     1 
11070 11073     1 
11073 11074     1 
11073 11075     1 
11073 11076     1 
11076 11077     1 
11076 11078     1 
11076 11079     1 
11080 11081     1 
11080 11082     1 
11080 11083     1 
11083 11084     1 
11083 11085     1 
11083 11086     1 
11086 11087     1 
11086 11088     1 
11086 11089     1 
11089 11090     1 
11089 11091     1 
11089 11092     1 
11092 11093     1 
11092 11094     1 
11092 11095     1 
11095 11096     1 
11095 11097     1 
11095 11098     1 
11098 11099     1 
11098 11100     1 
11098 11101     1 
11101 11102     1 
11101 11103     1 
11101 11104     1 
11104 11105     1 
11104 11106     1 
11104 11107     1 
11107 11108     1 
11107 11109     1 
11107 11110     1 
11110 11111     1 
11110 11112     1 
11110 11113     1 
11113 11114     1 
11113 11115     1 
11113 11116     1 
11116 11117     1 
11116 11118     1 
11116 11119     1 
11119 11120     1 
11119 11121     1 
11119 11122     1 
11123 11124     1 
11123 11127     1 
11123 11131     1 
11123 11135     1 
11124 11125     1 
11124 11126     1 
11124 11139     1 
11127 11128     1 
11127 11129     1 
11127 11130     1 
11131 11132     1 
11131 11133     1 
11131 11134     1 
11135 11136     1 
11135 11137     1 
11135 11138     1 
11139 11140     1 
11139 11141     1 
11139 11145     1 
11142 11143     1 
11142 11144     1 
11142 11145     1 
11142 11146     1 
11146 11147     1 
11147 11148     1 
11147 11149     1 
11147 11150     1 
11150 11151     1 
11150 11152     1 
11150 11158     1 
11152 11153     1 
11153 11154     1 
11153 11155     1 
11155 11156     1 
11155 11157     1 
11155 11167     1 
11158 11159     1 
11158 11160     1 
11158 11161     1 
11161 11162     1 
11162 11163     1 
11162 11164     1 
11164 11165     1 
11164 11166     1 
11164 11214     1 
11167 11168     1 
11167 11169     1 
11167 11170     1 
11170 11171     1 
11170 11172     1 
11170 11173     1 
11173 11174     1 
11173 11175     1 
11173 11176     1 
11176 11177     1 
11176 11178     1 
11176 11179     1 
11179 11180     1 
11179 11181     1 
11179 11182     1 
11182 11183     1 
11182 11184     1 
11182 11185     1 
11185 11186     1 
11185 11187     1 
11187 11188     1 
11187 11189     1 
11189 11190     1 
11189 11191     1 
11189 11192     1 
11192 11193     1 
11192 11194     1 
11192 11195     1 
11195 11196     1 
11195 11197     1 
11195 11198     1 
11198 11199     1 
11198 11200     1 
11198 11201     1 
11201 11202     1 
11201 11203     1 
11201 11204     1 
11204 11205     1 
11204 11206     1 
11204 11207     1 
11207 11208     1 
11207 11209     1 
11207 11210     1 
11210 11211     1 
11210 11212     1 
11210 11213     1 
11214 11215     1 
11214 11216     1 
11214 11217     1 
11217 11218     1 
11217 11219     1 
11217 11220     1 
11220 11221     1 
11220 11222     1 
11220 11223     1 
11223 11224     1 
11223 11225     1 
11223 11226     1 
11226 11227     1 
11226 11228     1 
11226 11229     1 
11229 11230     1 
11229 11231     1 
11229 11232     1 
11232 11233     1 
11232 11234     1 
11232 11235     1 
11235 11236     1 
11235 11237     1 
11235 11238     1 
11238 11239     1 
11238 11240     1 
11238 11241     1 
11241 11242     1 
11241 11243     1 
11241 11244     1 
11244 11245     1 
11244 11246     1 
11244 11247     1 
11247 11248     1 
11247 11249     1 
11247 11250     1 
11250 11251     1 
11250 11252     1 
11250 11253     1 
11253 11254     1 
11253 11255     1 
11253 11256     1 
11257 11258     1 
11257 11261     1 
11257 11265     1 
11257 11269     1 
11258 11259     1 
11258 11260     1 
11258 11273     1 
11261 11262     1 
11261 11263     1 
11261 11264     1 
11265 11266     1 
11265 11267     1 
11265 11268     1 
11269 11270     1 
11269 11271     1 
11269 11272     1 
11273 11274     1 
11273 11275     1 
11273 11279     1 
11276 11277     1 
11276 11278     1 
11276 11279     1 
11276 11280     1 
11280 11281     1 
11281 11282     1 
11281 11283     1 
11281 11284     1 
11284 11285     1 
11284 11286     1 
11284 11292     1 
11286 11287     1 
11287 11288     1 
11287 11289     1 
11289 11290     1 
11289 11291     1 
11289 11301     1 
11292 11293     1 
11292 11294     1 
11292 11295     1 
11295 11296     1 
11296 11297     1 
11296 11298     1 
11298 11299     1 
11298 11300     1 
11298 11348     1 
11301 11302     1 
11301 11303     1 
11301 11304     1 
11304 11305     1 
11304 11306     1 
11304 11307     1 
11307 11308     1 
11307 11309     1 
11307 11310     1 
11310 11311     1 
11310 11312     1 
11310 11313     1 
11313 11314     1 
11313 11315     1 
11313 11316     1 
11316 11317     1 
11316 11318     1 
11316 11319     1 
11319 11320     1 
11319 11321     1 
11321 11322     1 
11321 11323     1 
11323 11324     1 
11323 11325     1 
11323 11326     1 
11326 11327     1 
11326 11328     1 
11326 11329     1 
11329 11330     1 
11329 11331     1 
11329 11332     1 
11332 11333     1 
11332 11334     1 
11332 11335     1 
11335 11336     1 
11335 11337     1 
11335 11338     1 
11338 11339     1 
11338 11340     1 
11338 11341     1 
11341 11342     1 
11341 11343     1 
11341 11344     1 
11344 11345     1 
11344 11346     1 
11344 11347     1 
11348 11349     1 
11348 11350     1 
11348 11351     1 
11351 11352     1 
11351 11353     1 
11351 11354     1 
11354 11355     1 
11354 11356     1 
11354 11357     1 
11357 11358     1 
11357 11359     1 
11357 11360     1 
11360 11361     1 
11360 11362     1 
11360 11363     1 
11363 11364     1 
11363 11365     1 
11363 11366     1 
11366 11367     1 
11366 11368     1 
11366 11369     1 
11369 11370     1 
11369 11371     1 
11369 11372     1 
11372 11373     1 
11372 11374     1 
11372 11375     1 
11375 11376     1 
11375 11377     1 
11375 11378     1 
11378 11379     1 
11378 11380     1 
11378 11381     1 
11381 11382     1 
11381 11383     1 
11381 11384     1 
11384 11385     1 
11384 11386     1 
11384 11387     1 
11387 11388     1 
11387 11389     1 
11387 11390     1 
11391 11392     1 
11391 11395     1 
11391 11399     1 
11391 11403     1 
11392 11393     1 
11392 11394     1 
11392 11407     1 
11395 11396     1 
11395 11397     1 
11395 11398     1 
11399 11400     1 
11399 11401     1 
11399 11402     1 
11403 11404     1 
11403 11405     1 
11403 11406     1 
11407 11408     1 
11407 11409     1 
11407 11413     1 
11410 11411     1 
11410 11412     1 
11410 11413     1 
11410 11414     1 
11414 11415     1 
11415 11416     1 
11415 11417     1 
11415 11418     1 
11418 11419     1 
11418 11420     1 
11418 11426     1 
11420 11421     1 
11421 11422     1 
11421 11423     1 
11423 11424     1 
11423 11425     1 
11423 11435     1 
11426 11427     1 
11426 11428     1 
11426 11429     1 
11429 11430     1 
11430 11431     1 
11430 11432     1 
11432 11433     1 
11432 11434     1 
11432 11482     1 
11435 11436     1 
11435 11437     1 
11435 11438     1 
11438 11439     1 
11438 11440     1 
11438 11441     1 
11441 11442     1 
11441 11443     1 
11441 11444     1 
11444 11445     1 
11444 11446     1 
11444 11447     1 
11447 11448     1 
11447 11449     1 
11447 11450     1 
11450 11451     1 
11450 11452     1 
11450 11453     1 
11453 11454     1 
11453 11455     1 
11455 11456     1 
11455 11457     1 
11457 11458     1 
11457 11459     1 
11457 11460     1 
11460 11461     1 
11460 11462     1 
11460 11463     1 
11463 11464     1 
11463 11465     1 
11463 11466     1 
11466 11467     1 
11466 11468     1 
11466 11469     1 
11469 11470     1 
11469 11471     1 
11469 11472     1 
11472 11473     1 
11472 11474     1 
11472 11475     1 
11475 11476     1 
11475 11477     1 
11475 11478     1 
11478 11479     1 
11478 11480     1 
11478 11481     1 
11482 11483     1 
11482 11484     1 
11482 11485     1 
11485 11486     1 
11485 11487     1 
11485 11488     1 
11488 11489     1 
11488 11490     1 
11488 11491     1 
11491 11492     1 
11491 11493     1 
11491 11494     1 
11494 11495     1 
11494 11496     1 
11494 11497     1 
11497 11498     1 
11497 11499     1 
11497 11500     1 
11500 11501     1 
11500 11502     1 
11500 11503     1 
11503 11504     1 
11503 11505     1 
11503 11506     1 
11506 11507     1 
11506 11508     1 
11506 11509     1 
11509 11510     1 
11509 11511     1 
11509 11512     1 
11512 11513     1 
11512 11514     1 
11512 11515     1 
11515 11516     1 
11515 11517     1 
11515 11518     1 
11518 11519     1 
11518 11520     1 
11518 11521     1 
11521 11522     1 
11521 11523     1 
11521 11524     1 
11525 11526     1 
11525 11529     1 
11525 11533     1 
11525 11537     1 
11526 11527     1 
11526 11528     1 
11526 11541     1 
11529 11530     1 
11529 11531     1 
11529 11532     1 
11533 11534     1 
11533 11535     1 
11533 11536     1 
11537 11538     1 
11537 11539     1 
11537 11540     1 
11541 11542     1 
11541 11543     1 
11541 11547     1 
11544 11545     1 
11544 11546     1 
11544 11547     1 
11544 11548     1 
11548 11549     1 
11549 11550     1 
11549 11551     1 
11549 11552     1 
11552 11553     1 
11552 11554     1 
11552 11560     1 
11554 11555     1 
11555 11556     1 
11555 11557     1 
11557 11558     1 
11557 11559     1 
11557 11569     1 
11560 11561     1 
11560 11562     1 
11560 11563     1 
11563 11564     1 
11564 11565     1 
11564 11566     1 
11566 11567     1 
11566 11568     1 
11566 11616     1 
11569 11570     1 
11569 11571     1 
11569 11572     1 
11572 11573     1 
11572 11574     1 
11572 11575     1 
11575 11576     1 
11575 11577     1 
11575 11578     1 
11578 11579     1 
11578 11580     1 
11578 11581     1 
11581 11582     1 
11581 11583     1 
11581 11584     1 
11584 11585     1 
11584 11586     1 
11584 11587     1 
11587 11588     1 
11587 11589     1 
11589 11590     1 
11589 11591     1 
11591 11592     1 
11591 11593     1 
11591 11594     1 
11594 11595     1 
11594 11596     1 
11594 11597     1 
11597 11598     1 
11597 11599     1 
11597 11600     1 
11600 11601     1 
11600 11602     1 
11600 11603     1 
11603 11604     1 
11603 11605     1 
11603 11606     1 
11606 11607     1 
11606 11608     1 
11606 11609     1 
11609 11610     1 
11609 11611     1 
11609 11612     1 
11612 11613     1 
11612 11614     1 
11612 11615     1 
11616 11617     1 
11616 11618     1 
11616 11619     1 
11619 11620     1 
11619 11621     1 
11619 11622     1 
11622 11623     1 
11622 11624     1 
11622 11625     1 
11625 11626     1 
11625 11627     1 
11625 11628     1 
11628 11629     1 
11628 11630     1 
11628 11631     1 
11631 11632     1 
11631 11633     1 
11631 11634     1 
11634 11635     1 
11634 11636     1 
11634 11637     1 
11637 11638     1 
11637 11639     1 
11637 11640     1 
11640 11641     1 
11640 11642     1 
11640 11643     1 
11643 11644     1 
11643 11645     1 
11643 11646     1 
11646 11647     1 
11646 11648     1 
11646 11649     1 
11649 11650     1 
11649 11651     1 
11649 11652     1 
11652 11653     1 
11652 11654     1 
11652 11655     1 
11655 11656     1 
11655 11657     1 
11655 11658     1 
11659 11660     1 
11659 11663     1 
11659 11667     1 
11659 11671     1 
11660 11661     1 
11660 11662     1 
11660 11675     1 
11663 11664     1 
11663 11665     1 
11663 11666     1 
11667 11668     1 
11667 11669     1 
11667 11670     1 
11671 11672     1 
11671 11673     1 
11671 11674     1 
11675 11676     1 
11675 11677     1 
11675 11681     1 
11678 11679     1 
11678 11680     1 
11678 11681     1 
11678 11682     1 
11682 11683     1 
11683 11684     1 
11683 11685     1 
11683 11686     1 
11686 11687     1 
11686 11688     1 
11686 11694     1 
11688 11689     1 
11689 11690     1 
11689 11691     1 
11691 11692     1 
11691 11693     1 
11691 11703     1 
11694 11695     1 
11694 11696     1 
11694 11697     1 
11697 11698     1 
11698 11699     1 
11698 11700     1 
11700 11701     1 
11700 11702     1 
11700 11750     1 
11703 11704     1 
11703 11705     1 
11703 11706     1 
11706 11707     1 
11706 11708     1 
11706 11709     1 
11709 11710     1 
11709 11711     1 
11709 11712     1 
11712 11713     1 
11712 11714     1 
11712 11715     1 
11715 11716     1 
11715 11717     1 
11715 11718     1 
11718 11719     1 
11718 11720     1 
11718 11721     1 
11721 11722     1 
11721 11723     1 
11723 11724     1 
11723 11725     1 
11725 11726     1 
11725 11727     1 
11725 11728     1 
11728 11729     1 
11728 11730     1 
11728 11731     1 
11731 11732     1 
11731 11733     1 
11731 11734     1 
11734 11735     1 
11734 11736     1 
11734 11737     1 
11737 11738     1 
11737 11739     1 
11737 11740     1 
11740 11741     1 
11740 11742     1 
11740 11743     1 
11743 11744     1 
11743 11745     1 
11743 11746     1 
11746 11747     1 
11746 11748     1 
11746 11749     1 
11750 11751     1 
11750 11752     1 
11750 11753     1 
11753 11754     1 
11753 11755     1 
11753 11756     1 
11756 11757     1 
11756 11758     1 
11756 11759     1 
11759 11760     1 
11759 11761     1 
11759 11762     1 
11762 11763     1 
11762 11764     1 
11762 11765     1 
11765 11766     1 
11765 11767     1 
11765 11768     1 
11768 11769     1 
11768 11770     1 
11768 11771     1 
11771 11772     1 
11771 11773     1 
11771 11774     1 
11774 11775     1 
11774 11776     1 
11774 11777     1 
11777 11778     1 
11777 11779     1 
11777 11780     1 
11780 11781     1 
11780 11782     1 
11780 11783     1 
11783 11784     1 
11783 11785     1 
11783 11786     1 
11786 11787     1 
11786 11788     1 
11786 11789     1 
11789 11790     1 
11789 11791     1 
11789 11792     1 
11793 11794     1 
11793 11797     1 
11793 11801     1 
11793 11805     1 
11794 11795     1 
11794 11796     1 
11794 11809     1 
11797 11798     1 
11797 11799     1 
11797 11800     1 
11801 11802     1 
11801 11803     1 
11801 11804     1 
11805 11806     1 
11805 11807     1 
11805 11808     1 
11809 11810     1 
11809 11811     1 
11809 11815     1 
11812 11813     1 
11812 11814     1 
11812 11815     1 
11812 11816     1 
11816 11817     1 
11817 11818     1 
11817 11819     1 
11817 11820     1 
11820 11821     1 
11820 11822     1 
11820 11828     1 
11822 11823     1 
11823 11824     1 
11823 11825     1 
11825 11826     1 
11825 11827     1 
11825 11837     1 
11828 11829     1 
11828 11830     1 
11828 11831     1 
11831 11832     1 
11832 11833     1 
11832 11834     1 
11834 11835     1 
11834 11836     1 
11834 11884     1 
11837 11838     1 
11837 11839     1 
11837 11840     1 
11840 11841     1 
11840 11842     1 
11840 11843     1 
11843 11844     1 
11843 11845     1 
11843 11846     1 
11846 11847     1 
11846 11848     1 
11846 11849     1 
11849 11850     1 
11849 11851     1 
11849 11852     1 
11852 11853     1 
11852 11854     1 
11852 11855     1 
11855 11856     1 
11855 11857     1 
11857 11858     1 
11857 11859     1 
11859 11860     1 
11859 11861     1 
11859 11862     1 
11862 11863     1 
11862 11864     1 
11862 11865     1 
11865 11866     1 
11865 11867     1 
11865 11868     1 
11868 11869     1 
11868 11870     1 
11868 11871     1 
11871 11872     1 
11871 11873     1 
11871 11874     1 
11874 11875     1 
11874 11876     1 
11874 11877     1 
11877 11878     1 
11877 11879     1 
11877 11880     1 
11880 11881     1 
11880 11882     1 
11880 11883     1 
11884 11885     1 
11884 11886     1 
11884 11887     1 
11887 11888     1 
11887 11889     1 
11887 11890     1 
11890 11891     1 
11890 11892     1 
11890 11893     1 
11893 11894     1 
11893 11895     1 
11893 11896     1 
11896 11897     1 
11896 11898     1 
11896 11899     1 
11899 11900     1 
11899 11901     1 
11899 11902     1 
11902 11903     1 
11902 11904     1 
11902 11905     1 
11905 11906     1 
11905 11907     1 
11905 11908     1 
11908 11909     1 
11908 11910     1 
11908 11911     1 
11911 11912     1 
11911 11913     1 
11911 11914     1 
11914 11915     1 
11914 11916     1 
11914 11917     1 
11917 11918     1 
11917 11919     1 
11917 11920     1 
11920 11921     1 
11920 11922     1 
11920 11923     1 
11923 11924     1 
11923 11925     1 
11923 11926     1 
11927 11928     1 
11927 11931     1 
11927 11935     1 
11927 11939     1 
11928 11929     1 
11928 11930     1 
11928 11943     1 
11931 11932     1 
11931 11933     1 
11931 11934     1 
11935 11936     1 
11935 11937     1 
11935 11938     1 
11939 11940     1 
11939 11941     1 
11939 11942     1 
11943 11944     1 
11943 11945     1 
11943 11949     1 
11946 11947     1 
11946 11948     1 
11946 11949     1 
11946 11950     1 
11950 11951     1 
11951 11952     1 
11951 11953     1 
11951 11954     1 
11954 11955     1 
11954 11956     1 
11954 11962     1 
11956 11957     1 
11957 11958     1 
11957 11959     1 
11959 11960     1 
11959 11961     1 
11959 11971     1 
11962 11963     1 
11962 11964     1 
11962 11965     1 
11965 11966     1 
11966 11967     1 
11966 11968     1 
11968 11969     1 
11968 11970     1 
11968 12018     1 
11971 11972     1 
11971 11973     1 
11971 11974     1 
11974 11975     1 
11974 11976     1 
11974 11977     1 
11977 11978     1 
11977 11979     1 
11977 11980     1 
11980 11981     1 
11980 11982     1 
11980 11983     1 
11983 11984     1 
11983 11985     1 
11983 11986     1 
11986 11987     1 
11986 11988     1 
11986 11989     1 
11989 11990     1 
11989 11991     1 
11991 11992     1 
11991 11993     1 
11993 11994     1 
11993 11995     1 
11993 11996     1 
11996 11997     1 
11996 11998     1 
11996 11999     1 
11999 12000     1 
11999 12001     1 
11999 12002     1 
12002 12003     1 
12002 12004     1 
12002 12005     1 
12005 12006     1 
12005 12007     1 
12005 12008     1 
12008 12009     1 
12008 12010     1 
12008 12011     1 
12011 12012     1 
12011 12013     1 
12011 12014     1 
12014 12015     1 
12014 12016     1 
12014 12017     1 
12018 12019     1 
12018 12020     1 
12018 12021     1 
12021 12022     1 
12021 12023     1 
12021 12024     1 
12024 12025     1 
12024 12026     1 
12024 12027     1 
12027 12028     1 
12027 12029     1 
12027 12030     1 
12030 12031     1 
12030 12032     1 
12030 12033     1 
12033 12034     1 
12033 12035     1 
12033 12036     1 
12036 12037     1 
12036 12038     1 
12036 12039     1 
12039 12040     1 
12039 12041     1 
12039 12042     1 
12042 12043     1 
12042 12044     1 
12042 12045     1 
12045 12046     1 
12045 12047     1 
12045 12048     1 
12048 12049     1 
12048 12050     1 
12048 12051     1 
12051 12052     1 
12051 12053     1 
12051 12054     1 
12054 12055     1 
12054 12056     1 
12054 12057     1 
12057 12058     1 
12057 12059     1 
12057 12060     1 
12061 12062     1 
12061 12065     1 
12061 12069     1 
12061 12073     1 
12062 12063     1 
12062 12064     1 
12062 12077     1 
12065 12066     1 
12065 12067     1 
12065 12068     1 
12069 12070     1 
12069 12071     1 
12069 12072     1 
12073 12074     1 
12073 12075     1 
12073 12076     1 
12077 12078     1 
12077 12079     1 
12077 12083     1 
12080 12081     1 
12080 12082     1 
12080 12083     1 
12080 12084     1 
12084 12085     1 
12085 12086     1 
12085 12087     1 
12085 12088     1 
12088 12089     1 
12088 12090     1 
12088 12096     1 
12090 12091     1 
12091 12092     1 
12091 12093     1 
12093 12094     1 
12093 12095     1 
12093 12105     1 
12096 12097     1 
12096 12098     1 
12096 12099     1 
12099 12100     1 
12100 12101     1 
12100 12102     1 
12102 12103     1 
12102 12104     1 
12102 12152     1 
12105 12106     1 
12105 12107     1 
12105 12108     1 
12108 12109     1 
12108 12110     1 
12108 12111     1 
12111 12112     1 
12111 12113     1 
12111 12114     1 
12114 12115     1 
12114 12116     1 
12114 12117     1 
12117 12118     1 
12117 12119     1 
12117 12120     1 
12120 12121     1 
12120 12122     1 
12120 12123     1 
12123 12124     1 
12123 12125     1 
12125 12126     1 
12125 12127     1 
12127 12128     1 
12127 12129     1 
12127 12130     1 
12130 12131     1 
12130 12132     1 
12130 12133     1 
12133 12134     1 
12133 12135     1 
12133 12136     1 
12136 12137     1 
12136 12138     1 
12136 12139     1 
12139 12140     1 
12139 12141     1 
12139 12142     1 
12142 12143     1 
12142 12144     1 
12142 12145     1 
12145 12146     1 
12145 12147     1 
12145 12148     1 
12148 12149     1 
12148 12150     1 
12148 12151     1 
12152 12153     1 
12152 12154     1 
12152 12155     1 
12155 12156     1 
12155 12157     1 
12155 12158     1 
12158 12159     1 
12158 12160     1 
12158 12161     1 
12161 12162     1 
12161 12163     1 
12161 12164     1 
12164 12165     1 
12164 12166     1 
12164 12167     1 
12167 12168     1 
12167 12169     1 
12167 12170     1 
12170 12171     1 
12170 12172     1 
12170 12173     1 
12173 12174     1 
12173 12175     1 
12173 12176     1 
12176 12177     1 
12176 12178     1 
12176 12179     1 
12179 12180     1 
12179 12181     1 
12179 12182     1 
12182 12183     1 
12182 12184     1 
12182 12185     1 
12185 12186     1 
12185 12187     1 
12185 12188     1 
12188 12189     1 
12188 12190     1 
12188 12191     1 
12191 12192     1 
12191 12193     1 
12191 12194     1 
12195 12196     1 
12195 12199     1 
12195 12203     1 
12195 12207     1 
12196 12197     1 
12196 12198     1 
12196 12211     1 
12199 12200     1 
12199 12201     1 
12199 12202     1 
12203 12204     1 
12203 12205     1 
12203 12206     1 
12207 12208     1 
12207 12209     1 
12207 12210     1 
12211 12212     1 
12211 12213     1 
12211 12217     1 
12214 12215     1 
12214 12216     1 
12214 12217     1 
12214 12218     1 
12218 12219     1 
12219 12220     1 
12219 12221     1 
12219 12222     1 
12222 12223     1 
12222 12224     1 
12222 12230     1 
12224 12225     1 
12225 12226     1 
12225 12227     1 
12227 12228     1 
12227 12229     1 
12227 12239     1 
12230 12231     1 
12230 12232     1 
12230 12233     1 
12233 12234     1 
12234 12235     1 
12234 12236     1 
12236 12237     1 
12236 12238     1 
12236 12286     1 
12239 12240     1 
12239 12241     1 
12239 12242     1 
12242 12243     1 
12242 12244     1 
12242 12245     1 
12245 12246     1 
12245 12247     1 
12245 12248     1 
12248 12249     1 
12248 12250     1 
12248 12251     1 
12251 12252     1 
12251 12253     1 
12251 12254     1 
12254 12255     1 
12254 12256     1 
12254 12257     1 
12257 12258     1 
12257 12259     1 
12259 12260     1 
12259 12261     1 
12261 12262     1 
12261 12263     1 
12261 12264     1 
12264 12265     1 
12264 12266     1 
12264 12267     1 
12267 12268     1 
12267 12269     1 
12267 12270     1 
12270 12271     1 
12270 12272     1 
12270 12273     1 
12273 12274     1 
12273 12275     1 
12273 12276     1 
12276 12277     1 
12276 12278     1 
12276 12279     1 
12279 12280     1 
12279 12281     1 
12279 12282     1 
12282 12283     1 
12282 12284     1 
12282 12285     1 
12286 12287     1 
12286 12288     1 
12286 12289     1 
12289 12290     1 
12289 12291     1 
12289 12292     1 
12292 12293     1 
12292 12294     1 
12292 12295     1 
12295 12296     1 
12295 12297     1 
12295 12298     1 
12298 12299     1 
12298 12300     1 
12298 12301     1 
12301 12302     1 
12301 12303     1 
12301 12304     1 
12304 12305     1 
12304 12306     1 
12304 12307     1 
12307 12308     1 
12307 12309     1 
12307 12310     1 
12310 12311     1 
12310 12312     1 
12310 12313     1 
12313 12314     1 
12313 12315     1 
12313 12316     1 
12316 12317     1 
12316 12318     1 
12316 12319     1 
12319 12320     1 
12319 12321     1 
12319 12322     1 
12322 12323     1 
12322 12324     1 
12322 12325     1 
12325 12326     1 
12325 12327     1 
12325 12328     1 
12329 12330     1 
12329 12333     1 
12329 12337     1 
12329 12341     1 
12330 12331     1 
12330 12332     1 
12330 12345     1 
12333 12334     1 
12333 12335     1 
12333 12336     1 
12337 12338     1 
12337 12339     1 
12337 12340     1 
12341 12342     1 
12341 12343     1 
12341 12344     1 
12345 12346     1 
12345 12347     1 
12345 12351     1 
12348 12349     1 
12348 12350     1 
12348 12351     1 
12348 12352     1 
12352 12353     1 
12353 12354     1 
12353 12355     1 
12353 12356     1 
12356 12357     1 
12356 12358     1 
12356 12364     1 
12358 12359     1 
12359 12360     1 
12359 12361     1 
12361 12362     1 
12361 12363     1 
12361 12373     1 
12364 12365     1 
12364 12366     1 
12364 12367     1 
12367 12368     1 
12368 12369     1 
12368 12370     1 
12370 12371     1 
12370 12372     1 
12370 12420     1 
12373 12374     1 
12373 12375     1 
12373 12376     1 
12376 12377     1 
12376 12378     1 
12376 12379     1 
12379 12380     1 
12379 12381     1 
12379 12382     1 
12382 12383     1 
12382 12384     1 
12382 12385     1 
12385 12386     1 
12385 12387     1 
12385 12388     1 
12388 12389     1 
12388 12390     1 
12388 12391     1 
12391 12392     1 
12391 12393     1 
12393 12394     1 
12393 12395     1 
12395 12396     1 
12395 12397     1 
12395 12398     1 
12398 12399     1 
12398 12400     1 
12398 12401     1 
12401 12402     1 
12401 12403     1 
12401 12404     1 
12404 12405     1 
12404 12406     1 
12404 12407     1 
12407 12408     1 
12407 12409     1 
12407 12410     1 
12410 12411     1 
12410 12412     1 
12410 12413     1 
12413 12414     1 
12413 12415     1 
12413 12416     1 
12416 12417     1 
12416 12418     1 
12416 12419     1 
12420 12421     1 
12420 12422     1 
12420 12423     1 
12423 12424     1 
12423 12425     1 
12423 12426     1 
12426 12427     1 
12426 12428     1 
12426 12429     1 
12429 12430     1 
12429 12431     1 
12429 12432     1 
12432 12433     1 
12432 12434     1 
12432 12435     1 
12435 12436     1 
12435 12437     1 
12435 12438     1 
12438 12439     1 
12438 12440     1 
12438 12441     1 
12441 12442     1 
12441 12443     1 
12441 12444     1 
12444 12445     1 
12444 12446     1 
12444 12447     1 
12447 12448     1 
12447 12449     1 
12447 12450     1 
12450 12451     1 
12450 12452     1 
12450 12453     1 
12453 12454     1 
12453 12455     1 
12453 12456     1 
12456 12457     1 
12456 12458     1 
12456 12459     1 
12459 12460     1 
12459 12461     1 
12459 12462     1 
12463 12464     1 
12463 12467     1 
12463 12471     1 
12463 12475     1 
12464 12465     1 
12464 12466     1 
12464 12479     1 
12467 12468     1 
12467 12469     1 
12467 12470     1 
12471 12472     1 
12471 12473     1 
12471 12474     1 
12475 12476     1 
12475 12477     1 
12475 12478     1 
12479 12480     1 
12479 12481     1 
12479 12485     1 
12482 12483     1 
12482 12484     1 
12482 12485     1 
12482 12486     1 
12486 12487     1 
12487 12488     1 
12487 12489     1 
12487 12490     1 
12490 12491     1 
12490 12492     1 
12490 12498     1 
12492 12493     1 
12493 12494     1 
12493 12495     1 
12495 12496     1 
12495 12497     1 
12495 12507     1 
12498 12499     1 
12498 12500     1 
12498 12501     1 
12501 12502     1 
12502 12503     1 
12502 12504     1 
12504 12505     1 
12504 12506     1 
12504 12554     1 
12507 12508     1 
12507 12509     1 
12507 12510     1 
12510 12511     1 
12510 12512     1 
12510 12513     1 
12513 12514     1 
12513 12515     1 
12513 12516     1 
12516 12517     1 
12516 12518     1 
12516 12519     1 
12519 12520     1 
12519 12521     1 
12519 12522     1 
12522 12523     1 
12522 12524     1 
12522 12525     1 
12525 12526     1 
12525 12527     1 
12527 12528     1 
12527 12529     1 
12529 12530     1 
12529 12531     1 
12529 12532     1 
12532 12533     1 
12532 12534     1 
12532 12535     1 
12535 12536     1 
12535 12537     1 
12535 12538     1 
12538 12539     1 
12538 12540     1 
12538 12541     1 
12541 12542     1 
12541 12543     1 
12541 12544     1 
12544 12545     1 
12544 12546     1 
12544 12547     1 
12547 12548     1 
12547 12549     1 
12547 12550     1 
12550 12551     1 
12550 12552     1 
12550 12553     1 
12554 12555     1 
12554 12556     1 
12554 12557     1 
12557 12558     1 
12557 12559     1 
12557 12560     1 
12560 12561     1 
12560 12562     1 
12560 12563     1 
12563 12564     1 
12563 12565     1 
12563 12566     1 
12566 12567     1 
12566 12568     1 
12566 12569     1 
12569 12570     1 
12569 12571     1 
12569 12572     1 
12572 12573     1 
12572 12574     1 
12572 12575     1 
12575 12576     1 
12575 12577     1 
12575 12578     1 
12578 12579     1 
12578 12580     1 
12578 12581     1 
12581 12582     1 
12581 12583     1 
12581 12584     1 
12584 12585     1 
12584 12586     1 
12584 12587     1 
12587 12588     1 
12587 12589     1 
12587 12590     1 
12590 12591     1 
12590 12592     1 
12590 12593     1 
12593 12594     1 
12593 12595     1 
12593 12596     1 
12597 12598     1 
12597 12601     1 
12597 12605     1 
12597 12609     1 
12598 12599     1 
12598 12600     1 
12598 12613     1 
12601 12602     1 
12601 12603     1 
12601 12604     1 
12605 12606     1 
12605 12607     1 
12605 12608     1 
12609 12610     1 
12609 12611     1 
12609 12612     1 
12613 12614     1 
12613 12615     1 
12613 12619     1 
12616 12617     1 
12616 12618     1 
12616 12619     1 
12616 12620     1 
12620 12621     1 
12621 12622     1 
12621 12623     1 
12621 12624     1 
12624 12625     1 
12624 12626     1 
12624 12632     1 
12626 12627     1 
12627 12628     1 
12627 12629     1 
12629 12630     1 
12629 12631     1 
12629 12641     1 
12632 12633     1 
12632 12634     1 
12632 12635     1 
12635 12636     1 
12636 12637     1 
12636 12638     1 
12638 12639     1 
12638 12640     1 
12638 12688     1 
12641 12642     1 
12641 12643     1 
12641 12644     1 
12644 12645     1 
12644 12646     1 
12644 12647     1 
12647 12648     1 
12647 12649     1 
12647 12650     1 
12650 12651     1 
12650 12652     1 
12650 12653     1 
12653 12654     1 
12653 12655     1 
12653 12656     1 
12656 12657     1 
12656 12658     1 
12656 12659     1 
12659 12660     1 
12659 12661     1 
12661 12662     1 
12661 12663     1 
12663 12664     1 
12663 12665     1 
12663 12666     1 
12666 12667     1 
12666 12668     1 
12666 12669     1 
12669 12670     1 
12669 12671     1 
12669 12672     1 
12672 12673     1 
12672 12674     1 
12672 12675     1 
12675 12676     1 
12675 12677     1 
12675 12678     1 
12678 12679     1 
12678 12680     1 
12678 12681     1 
12681 12682     1 
12681 12683     1 
12681 12684     1 
12684 12685     1 
12684 12686     1 
12684 12687     1 
12688 12689     1 
12688 12690     1 
12688 12691     1 
12691 12692     1 
12691 12693     1 
12691 12694     1 
12694 12695     1 
12694 12696     1 
12694 12697     1 
12697 12698     1 
12697 12699     1 
12697 12700     1 
12700 12701     1 
12700 12702     1 
12700 12703     1 
12703 12704     1 
12703 12705     1 
12703 12706     1 
12706 12707     1 
12706 12708     1 
12706 12709     1 
12709 12710     1 
12709 12711     1 
12709 12712     1 
12712 12713     1 
12712 12714     1 
12712 12715     1 
12715 12716     1 
12715 12717     1 
12715 12718     1 
12718 12719     1 
12718 12720     1 
12718 12721     1 
12721 12722     1 
12721 12723     1 
12721 12724     1 
12724 12725     1 
12724 12726     1 
12724 12727     1 
12727 12728     1 
12727 12729     1 
12727 12730     1 
12731 12732     1 
12731 12735     1 
12731 12739     1 
12731 12743     1 
12732 12733     1 
12732 12734     1 
12732 12747     1 
12735 12736     1 
12735 12737     1 
12735 12738     1 
12739 12740     1 
12739 12741     1 
12739 12742     1 
12743 12744     1 
12743 12745     1 
12743 12746     1 
12747 12748     1 
12747 12749     1 
12747 12753     1 
12750 12751     1 
12750 12752     1 
12750 12753     1 
12750 12754     1 
12754 12755     1 
12755 12756     1 
12755 12757     1 
12755 12758     1 
12758 12759     1 
12758 12760     1 
12758 12766     1 
12760 12761     1 
12761 12762     1 
12761 12763     1 
12763 12764     1 
12763 12765     1 
12763 12775     1 
12766 12767     1 
12766 12768     1 
12766 12769     1 
12769 12770     1 
12770 12771     1 
12770 12772     1 
12772 12773     1 
12772 12774     1 
12772 12822     1 
12775 12776     1 
12775 12777     1 
12775 12778     1 
12778 12779     1 
12778 12780     1 
12778 12781     1 
12781 12782     1 
12781 12783     1 
12781 12784     1 
12784 12785     1 
12784 12786     1 
12784 12787     1 
12787 12788     1 
12787 12789     1 
12787 12790     1 
12790 12791     1 
12790 12792     1 
12790 12793     1 
12793 12794     1 
12793 12795     1 
12795 12796     1 
12795 12797     1 
12797 12798     1 
12797 12799     1 
12797 12800     1 
12800 12801     1 
12800 12802     1 
12800 12803     1 
12803 12804     1 
12803 12805     1 
12803 12806     1 
12806 12807     1 
12806 12808     1 
12806 12809     1 
12809 12810     1 
12809 12811     1 
12809 12812     1 
12812 12813     1 
12812 12814     1 
12812 12815     1 
12815 12816     1 
12815 12817     1 
12815 12818     1 
12818 12819     1 
12818 12820     1 
12818 12821     1 
12822 12823     1 
12822 12824     1 
12822 12825     1 
12825 12826     1 
12825 12827     1 
12825 12828     1 
12828 12829     1 
12828 12830     1 
12828 12831     1 
12831 12832     1 
12831 12833     1 
12831 12834     1 
12834 12835     1 
12834 12836     1 
12834 12837     1 
12837 12838     1 
12837 12839     1 
12837 12840     1 
12840 12841     1 
12840 12842     1 
12840 12843     1 
12843 12844     1 
12843 12845     1 
12843 12846     1 
12846 12847     1 
12846 12848     1 
12846 12849     1 
12849 12850     1 
12849 12851     1 
12849 12852     1 
12852 12853     1 
12852 12854     1 
12852 12855     1 
12855 12856     1 
12855 12857     1 
12855 12858     1 
12858 12859     1 
12858 12860     1 
12858 12861     1 
12861 12862     1 
12861 12863     1 
12861 12864     1 
12865 12866     1 
12865 12869     1 
12865 12873     1 
12865 12877     1 
12866 12867     1 
12866 12868     1 
12866 12881     1 
12869 12870     1 
12869 12871     1 
12869 12872     1 
12873 12874     1 
12873 12875     1 
12873 12876     1 
12877 12878     1 
12877 12879     1 
12877 12880     1 
12881 12882     1 
12881 12883     1 
12881 12887     1 
12884 12885     1 
12884 12886     1 
12884 12887     1 
12884 12888     1 
12888 12889     1 
12889 12890     1 
12889 12891     1 
12889 12892     1 
12892 12893     1 
12892 12894     1 
12892 12900     1 
12894 12895     1 
12895 12896     1 
12895 12897     1 
12897 12898     1 
12897 12899     1 
12897 12909     1 
12900 12901     1 
12900 12902     1 
12900 12903     1 
12903 12904     1 
12904 12905     1 
12904 12906     1 
12906 12907     1 
12906 12908     1 
12906 12956     1 
12909 12910     1 
12909 12911     1 
12909 12912     1 
12912 12913     1 
12912 12914     1 
12912 12915     1 
12915 12916     1 
12915 12917     1 
12915 12918     1 
12918 12919     1 
12918 12920     1 
12918 12921     1 
12921 12922     1 
12921 12923     1 
12921 12924     1 
12924 12925     1 
12924 12926     1 
12924 12927     1 
12927 12928     1 
12927 12929     1 
12929 12930     1 
12929 12931     1 
12931 12932     1 
12931 12933     1 
12931 12934     1 
12934 12935     1 
12934 12936     1 
12934 12937     1 
12937 12938     1 
12937 12939     1 
12937 12940     1 
12940 12941     1 
12940 12942     1 
12940 12943     1 
12943 12944     1 
12943 12945     1 
12943 12946     1 
12946 12947     1 
12946 12948     1 
12946 12949     1 
12949 12950     1 
12949 12951     1 
12949 12952     1 
12952 12953     1 
12952 12954     1 
12952 12955     1 
12956 12957     1 
12956 12958     1 
12956 12959     1 
12959 12960     1 
12959 12961     1 
12959 12962     1 
12962 12963     1 
12962 12964     1 
12962 12965     1 
12965 12966     1 
12965 12967     1 
12965 12968     1 
12968 12969     1 
12968 12970     1 
12968 12971     1 
12971 12972     1 
12971 12973     1 
12971 12974     1 
12974 12975     1 
12974 12976     1 
12974 12977     1 
12977 12978     1 
12977 12979     1 
12977 12980     1 
12980 12981     1 
12980 12982     1 
12980 12983     1 
12983 12984     1 
12983 12985     1 
12983 12986     1 
12986 12987     1 
12986 12988     1 
12986 12989     1 
12989 12990     1 
12989 12991     1 
12989 12992     1 
12992 12993     1 
12992 12994     1 
12992 12995     1 
12995 12996     1 
12995 12997     1 
12995 12998     1 
12999 13000     1 
12999 13003     1 
12999 13007     1 
12999 13011     1 
13000 13001     1 
13000 13002     1 
13000 13015     1 
13003 13004     1 
13003 13005     1 
13003 13006     1 
13007 13008     1 
13007 13009     1 
13007 13010     1 
13011 13012     1 
13011 13013     1 
13011 13014     1 
13015 13016     1 
13015 13017     1 
13015 13021     1 
13018 13019     1 
13018 13020     1 
13018 13021     1 
13018 13022     1 
13022 13023     1 
13023 13024     1 
13023 13025     1 
13023 13026     1 
13026 13027     1 
13026 13028     1 
13026 13034     1 
13028 13029     1 
13029 13030     1 
13029 13031     1 
13031 13032     1 
13031 13033     1 
13031 13043     1 
13034 13035     1 
13034 13036     1 
13034 13037     1 
13037 13038     1 
13038 13039     1 
13038 13040     1 
13040 13041     1 
13040 13042     1 
13040 13090     1 
13043 13044     1 
13043 13045     1 
13043 13046     1 
13046 13047     1 
13046 13048     1 
13046 13049     1 
13049 13050     1 
13049 13051     1 
13049 13052     1 
13052 13053     1 
13052 13054     1 
13052 13055     1 
13055 13056     1 
13055 13057     1 
13055 13058     1 
13058 13059     1 
13058 13060     1 
13058 13061     1 
13061 13062     1 
13061 13063     1 
13063 13064     1 
13063 13065     1 
13065 13066     1 
13065 13067     1 
13065 13068     1 
13068 13069     1 
13068 13070     1 
13068 13071     1 
13071 13072     1 
13071 13073     1 
13071 13074     1 
13074 13075     1 
13074 13076     1 
13074 13077     1 
13077 13078     1 
13077 13079     1 
13077 13080     1 
13080 13081     1 
13080 13082     1 
13080 13083     1 
13083 13084     1 
13083 13085     1 
13083 13086     1 
13086 13087     1 
13086 13088     1 
13086 13089     1 
13090 13091     1 
13090 13092     1 
13090 13093     1 
13093 13094     1 
13093 13095     1 
13093 13096     1 
13096 13097     1 
13096 13098     1 
13096 13099     1 
13099 13100     1 
13099 13101     1 
13099 13102     1 
13102 13103     1 
13102 13104     1 
13102 13105     1 
13105 13106     1 
13105 13107     1 
13105 13108     1 
13108 13109     1 
13108 13110     1 
13108 13111     1 
13111 13112     1 
13111 13113     1 
13111 13114     1 
13114 13115     1 
13114 13116     1 
13114 13117     1 
13117 13118     1 
13117 13119     1 
13117 13120     1 
13120 13121     1 
13120 13122     1 
13120 13123     1 
13123 13124     1 
13123 13125     1 
13123 13126     1 
13126 13127     1 
13126 13128     1 
13126 13129     1 
13129 13130     1 
13129 13131     1 
13129 13132     1 
13133 13134     1 
13133 13137     1 
13133 13141     1 
13133 13145     1 
13134 13135     1 
13134 13136     1 
13134 13149     1 
13137 13138     1 
13137 13139     1 
13137 13140     1 
13141 13142     1 
13141 13143     1 
13141 13144     1 
13145 13146     1 
13145 13147     1 
13145 13148     1 
13149 13150     1 
13149 13151     1 
13149 13155     1 
13152 13153     1 
13152 13154     1 
13152 13155     1 
13152 13156     1 
13156 13157     1 
13157 13158     1 
13157 13159     1 
13157 13160     1 
13160 13161     1 
13160 13162     1 
13160 13168     1 
13162 13163     1 
13163 13164     1 
13163 13165     1 
13165 13166     1 
13165 13167     1 
13165 13177     1 
13168 13169     1 
13168 13170     1 
13168 13171     1 
13171 13172     1 
13172 13173     1 
13172 13174     1 
13174 13175     1 
13174 13176     1 
13174 13224     1 
13177 13178     1 
13177 13179     1 
13177 13180     1 
13180 13181     1 
13180 13182     1 
13180 13183     1 
13183 13184     1 
13183 13185     1 
13183 13186     1 
13186 13187     1 
13186 13188     1 
13186 13189     1 
13189 13190     1 
13189 13191     1 
13189 13192     1 
13192 13193     1 
13192 13194     1 
13192 13195     1 
13195 13196     1 
13195 13197     1 
13197 13198     1 
13197 13199     1 
13199 13200     1 
13199 13201     1 
13199 13202     1 
13202 13203     1 
13202 13204     1 
13202 13205     1 
13205 13206     1 
13205 13207     1 
13205 13208     1 
13208 13209     1 
13208 13210     1 
13208 13211     1 
13211 13212     1 
13211 13213     1 
13211 13214     1 
13214 13215     1 
13214 13216     1 
13214 13217     1 
13217 13218     1 
13217 13219     1 
13217 13220     1 
13220 13221     1 
13220 13222     1 
13220 13223     1 
13224 13225     1 
13224 13226     1 
13224 13227     1 
13227 13228     1 
13227 13229     1 
13227 13230     1 
13230 13231     1 
13230 13232     1 
13230 13233     1 
13233 13234     1 
13233 13235     1 
13233 13236     1 
13236 13237     1 
13236 13238     1 
13236 13239     1 
13239 13240     1 
13239 13241     1 
13239 13242     1 
13242 13243     1 
13242 13244     1 
13242 13245     1 
13245 13246     1 
13245 13247     1 
13245 13248     1 
13248 13249     1 
13248 13250     1 
13248 13251     1 
13251 13252     1 
13251 13253     1 
13251 13254     1 
13254 13255     1 
13254 13256     1 
13254 13257     1 
13257 13258     1 
13257 13259     1 
13257 13260     1 
13260 13261     1 
13260 13262     1 
13260 13263     1 
13263 13264     1 
13263 13265     1 
13263 13266     1 
13267 13268     1 
13267 13271     1 
13267 13275     1 
13267 13279     1 
13268 13269     1 
13268 13270     1 
13268 13283     1 
13271 13272     1 
13271 13273     1 
13271 13274     1 
13275 13276     1 
13275 13277     1 
13275 13278     1 
13279 13280     1 
13279 13281     1 
13279 13282     1 
13283 13284     1 
13283 13285     1 
13283 13289     1 
13286 13287     1 
13286 13288     1 
13286 13289     1 
13286 13290     1 
13290 13291     1 
13291 13292     1 
13291 13293     1 
13291 13294     1 
13294 13295     1 
13294 13296     1 
13294 13302     1 
13296 13297     1 
13297 13298     1 
13297 13299     1 
13299 13300     1 
13299 13301     1 
13299 13311     1 
13302 13303     1 
13302 13304     1 
13302 13305     1 
13305 13306     1 
13306 13307     1 
13306 13308     1 
13308 13309     1 
13308 13310     1 
13308 13358     1 
13311 13312     1 
13311 13313     1 
13311 13314     1 
13314 13315     1 
13314 13316     1 
13314 13317     1 
13317 13318     1 
13317 13319     1 
13317 13320     1 
13320 13321     1 
13320 13322     1 
13320 13323     1 
13323 13324     1 
13323 13325     1 
13323 13326     1 
13326 13327     1 
13326 13328     1 
13326 13329     1 
13329 13330     1 
13329 13331     1 
13331 13332     1 
13331 13333     1 
13333 13334     1 
13333 13335     1 
13333 13336     1 
13336 13337     1 
13336 13338     1 
13336 13339     1 
13339 13340     1 
13339 13341     1 
13339 13342     1 
13342 13343     1 
13342 13344     1 
13342 13345     1 
13345 13346     1 
13345 13347     1 
13345 13348     1 
13348 13349     1 
13348 13350     1 
13348 13351     1 
13351 13352     1 
13351 13353     1 
13351 13354     1 
13354 13355     1 
13354 13356     1 
13354 13357     1 
13358 13359     1 
13358 13360     1 
13358 13361     1 
13361 13362     1 
13361 13363     1 
13361 13364     1 
13364 13365     1 
13364 13366     1 
13364 13367     1 
13367 13368     1 
13367 13369     1 
13367 13370     1 
13370 13371     1 
13370 13372     1 
13370 13373     1 
13373 13374     1 
13373 13375     1 
13373 13376     1 
13376 13377     1 
13376 13378     1 
13376 13379     1 
13379 13380     1 
13379 13381     1 
13379 13382     1 
13382 13383     1 
13382 13384     1 
13382 13385     1 
13385 13386     1 
13385 13387     1 
13385 13388     1 
13388 13389     1 
13388 13390     1 
13388 13391     1 
13391 13392     1 
13391 13393     1 
13391 13394     1 
13394 13395     1 
13394 13396     1 
13394 13397     1 
13397 13398     1 
13397 13399     1 
13397 13400     1 
13401 13402     1 
13401 13405     1 
13401 13409     1 
13401 13413     1 
13402 13403     1 
13402 13404     1 
13402 13417     1 
13405 13406     1 
13405 13407     1 
13405 13408     1 
13409 13410     1 
13409 13411     1 
13409 13412     1 
13413 13414     1 
13413 13415     1 
13413 13416     1 
13417 13418     1 
13417 13419     1 
13417 13423     1 
13420 13421     1 
13420 13422     1 
13420 13423     1 
13420 13424     1 
13424 13425     1 
13425 13426     1 
13425 13427     1 
13425 13428     1 
13428 13429     1 
13428 13430     1 
13428 13436     1 
13430 13431     1 
13431 13432     1 
13431 13433     1 
13433 13434     1 
13433 13435     1 
13433 13445     1 
13436 13437     1 
13436 13438     1 
13436 13439     1 
13439 13440     1 
13440 13441     1 
13440 13442     1 
13442 13443     1 
13442 13444     1 
13442 13492     1 
13445 13446     1 
13445 13447     1 
13445 13448     1 
13448 13449     1 
13448 13450     1 
13448 13451     1 
13451 13452     1 
13451 13453     1 
13451 13454     1 
13454 13455     1 
13454 13456     1 
13454 13457     1 
13457 13458     1 
13457 13459     1 
13457 13460     1 
13460 13461     1 
13460 13462     1 
13460 13463     1 
13463 13464     1 
13463 13465     1 
13465 13466     1 
13465 13467     1 
13467 13468     1 
13467 13469     1 
13467 13470     1 
13470 13471     1 
13470 13472     1 
13470 13473     1 
13473 13474     1 
13473 13475     1 
13473 13476     1 
13476 13477     1 
13476 13478     1 
13476 13479     1 
13479 13480     1 
13479 13481     1 
13479 13482     1 
13482 13483     1 
13482 13484     1 
13482 13485     1 
13485 13486     1 
13485 13487     1 
13485 13488     1 
13488 13489     1 
13488 13490     1 
13488 13491     1 
13492 13493     1 
13492 13494     1 
13492 13495     1 
13495 13496     1 
13495 13497     1 
13495 13498     1 
13498 13499     1 
13498 13500     1 
13498 13501     1 
13501 13502     1 
13501 13503     1 
13501 13504     1 
13504 13505     1 
13504 13506     1 
13504 13507     1 
13507 13508     1 
13507 13509     1 
13507 13510     1 
13510 13511     1 
13510 13512     1 
13510 13513     1 
13513 13514     1 
13513 13515     1 
13513 13516     1 
13516 13517     1 
13516 13518     1 
13516 13519     1 
13519 13520     1 
13519 13521     1 
13519 13522     1 
13522 13523     1 
13522 13524     1 
13522 13525     1 
13525 13526     1 
13525 13527     1 
13525 13528     1 
13528 13529     1 
13528 13530     1 
13528 13531     1 
13531 13532     1 
13531 13533     1 
13531 13534     1 
13535 13536     1 
13535 13539     1 
13535 13543     1 
13535 13547     1 
13536 13537     1 
13536 13538     1 
13536 13551     1 
13539 13540     1 
13539 13541     1 
13539 13542     1 
13543 13544     1 
13543 13545     1 
13543 13546     1 
13547 13548     1 
13547 13549     1 
13547 13550     1 
13551 13552     1 
13551 13553     1 
13551 13557     1 
13554 13555     1 
13554 13556     1 
13554 13557     1 
13554 13558     1 
13558 13559     1 
13559 13560     1 
13559 13561     1 
13559 13562     1 
13562 13563     1 
13562 13564     1 
13562 13570     1 
13564 13565     1 
13565 13566     1 
13565 13567     1 
13567 13568     1 
13567 13569     1 
13567 13579     1 
13570 13571     1 
13570 13572     1 
13570 13573     1 
13573 13574     1 
13574 13575     1 
13574 13576     1 
13576 13577     1 
13576 13578     1 
13576 13626     1 
13579 13580     1 
13579 13581     1 
13579 13582     1 
13582 13583     1 
13582 13584     1 
13582 13585     1 
13585 13586     1 
13585 13587     1 
13585 13588     1 
13588 13589     1 
13588 13590     1 
13588 13591     1 
13591 13592     1 
13591 13593     1 
13591 13594     1 
13594 13595     1 
13594 13596     1 
13594 13597     1 
13597 13598     1 
13597 13599     1 
13599 13600     1 
13599 13601     1 
13601 13602     1 
13601 13603     1 
13601 13604     1 
13604 13605     1 
13604 13606     1 
13604 13607     1 
13607 13608     1 
13607 13609     1 
13607 13610     1 
13610 13611     1 
13610 13612     1 
13610 13613     1 
13613 13614     1 
13613 13615     1 
13613 13616     1 
13616 13617     1 
13616 13618     1 
13616 13619     1 
13619 13620     1 
13619 13621     1 
13619 13622     1 
13622 13623     1 
13622 13624     1 
13622 13625     1 
13626 13627     1 
13626 13628     1 
13626 13629     1 
13629 13630     1 
13629 13631     1 
13629 13632     1 
13632 13633     1 
13632 13634     1 
13632 13635     1 
13635 13636     1 
13635 13637     1 
13635 13638     1 
13638 13639     1 
13638 13640     1 
13638 13641     1 
13641 13642     1 
13641 13643     1 
13641 13644     1 
13644 13645     1 
13644 13646     1 
13644 13647     1 
13647 13648     1 
13647 13649     1 
13647 13650     1 
13650 13651     1 
13650 13652     1 
13650 13653     1 
13653 13654     1 
13653 13655     1 
13653 13656     1 
13656 13657     1 
13656 13658     1 
13656 13659     1 
13659 13660     1 
13659 13661     1 
13659 13662     1 
13662 13663     1 
13662 13664     1 
13662 13665     1 
13665 13666     1 
13665 13667     1 
13665 13668     1 
13669 13670     1 
13669 13673     1 
13669 13677     1 
13669 13681     1 
13670 13671     1 
13670 13672     1 
13670 13685     1 
13673 13674     1 
13673 13675     1 
13673 13676     1 
13677 13678     1 
13677 13679     1 
13677 13680     1 
13681 13682     1 
13681 13683     1 
13681 13684     1 
13685 13686     1 
13685 13687     1 
13685 13691     1 
13688 13689     1 
13688 13690     1 
13688 13691     1 
13688 13692     1 
13692 13693     1 
13693 13694     1 
13693 13695     1 
13693 13696     1 
13696 13697     1 
13696 13698     1 
13696 13704     1 
13698 13699     1 
13699 13700     1 
13699 13701     1 
13701 13702     1 
13701 13703     1 
13701 13713     1 
13704 13705     1 
13704 13706     1 
13704 13707     1 
13707 13708     1 
13708 13709     1 
13708 13710     1 
13710 13711     1 
13710 13712     1 
13710 13760     1 
13713 13714     1 
13713 13715     1 
13713 13716     1 
13716 13717     1 
13716 13718     1 
13716 13719     1 
13719 13720     1 
13719 13721     1 
13719 13722     1 
13722 13723     1 
13722 13724     1 
13722 13725     1 
13725 13726     1 
13725 13727     1 
13725 13728     1 
13728 13729     1 
13728 13730     1 
13728 13731     1 
13731 13732     1 
13731 13733     1 
13733 13734     1 
13733 13735     1 
13735 13736     1 
13735 13737     1 
13735 13738     1 
13738 13739     1 
13738 13740     1 
13738 13741     1 
13741 13742     1 
13741 13743     1 
13741 13744     1 
13744 13745     1 
13744 13746     1 
13744 13747     1 
13747 13748     1 
13747 13749     1 
13747 13750     1 
13750 13751     1 
13750 13752     1 
13750 13753     1 
13753 13754     1 
13753 13755     1 
13753 13756     1 
13756 13757     1 
13756 13758     1 
13756 13759     1 
13760 13761     1 
13760 13762     1 
13760 13763     1 
13763 13764     1 
13763 13765     1 
13763 13766     1 
13766 13767     1 
13766 13768     1 
13766 13769     1 
13769 13770     1 
13769 13771     1 
13769 13772     1 
13772 13773     1 
13772 13774     1 
13772 13775     1 
13775 13776     1 
13775 13777     1 
13775 13778     1 
13778 13779     1 
13778 13780     1 
13778 13781     1 
13781 13782     1 
13781 13783     1 
13781 13784     1 
13784 13785     1 
13784 13786     1 
13784 13787     1 
13787 13788     1 
13787 13789     1 
13787 13790     1 
13790 13791     1 
13790 13792     1 
13790 13793     1 
13793 13794     1 
13793 13795     1 
13793 13796     1 
13796 13797     1 
13796 13798     1 
13796 13799     1 
13799 13800     1 
13799 13801     1 
13799 13802     1 
13803 13804     1 
13803 13807     1 
13803 13811     1 
13803 13815     1 
13804 13805     1 
13804 13806     1 
13804 13819     1 
13807 13808     1 
13807 13809     1 
13807 13810     1 
13811 13812     1 
13811 13813     1 
13811 13814     1 
13815 13816     1 
13815 13817     1 
13815 13818     1 
13819 13820     1 
13819 13821     1 
13819 13825     1 
13822 13823     1 
13822 13824     1 
13822 13825     1 
13822 13826     1 
13826 13827     1 
13827 13828     1 
13827 13829     1 
13827 13830     1 
13830 13831     1 
13830 13832     1 
13830 13838     1 
13832 13833     1 
13833 13834     1 
13833 13835     1 
13835 13836     1 
13835 13837     1 
13835 13847     1 
13838 13839     1 
13838 13840     1 
13838 13841     1 
13841 13842     1 
13842 13843     1 
13842 13844     1 
13844 13845     1 
13844 13846     1 
13844 13894     1 
13847 13848     1 
13847 13849     1 
13847 13850     1 
13850 13851     1 
13850 13852     1 
13850 13853     1 
13853 13854     1 
13853 13855     1 
13853 13856     1 
13856 13857     1 
13856 13858     1 
13856 13859     1 
13859 13860     1 
13859 13861     1 
13859 13862     1 
13862 13863     1 
13862 13864     1 
13862 13865     1 
13865 13866     1 
13865 13867     1 
13867 13868     1 
13867 13869     1 
13869 13870     1 
13869 13871     1 
13869 13872     1 
13872 13873     1 
13872 13874     1 
13872 13875     1 
13875 13876     1 
13875 13877     1 
13875 13878     1 
13878 13879     1 
13878 13880     1 
13878 13881     1 
13881 13882     1 
13881 13883     1 
13881 13884     1 
13884 13885     1 
13884 13886     1 
13884 13887     1 
13887 13888     1 
13887 13889     1 
13887 13890     1 
13890 13891     1 
13890 13892     1 
13890 13893     1 
13894 13895     1 
13894 13896     1 
13894 13897     1 
13897 13898     1 
13897 13899     1 
13897 13900     1 
13900 13901     1 
13900 13902     1 
13900 13903     1 
13903 13904     1 
13903 13905     1 
13903 13906     1 
13906 13907     1 
13906 13908     1 
13906 13909     1 
13909 13910     1 
13909 13911     1 
13909 13912     1 
13912 13913     1 
13912 13914     1 
13912 13915     1 
13915 13916     1 
13915 13917     1 
13915 13918     1 
13918 13919     1 
13918 13920     1 
13918 13921     1 
13921 13922     1 
13921 13923     1 
13921 13924     1 
13924 13925     1 
13924 13926     1 
13924 13927     1 
13927 13928     1 
13927 13929     1 
13927 13930     1 
13930 13931     1 
13930 13932     1 
13930 13933     1 
13933 13934     1 
13933 13935     1 
13933 13936     1 
13937 13938     1 
13937 13941     1 
13937 13945     1 
13937 13949     1 
13938 13939     1 
13938 13940     1 
13938 13953     1 
13941 13942     1 
13941 13943     1 
13941 13944     1 
13945 13946     1 
13945 13947     1 
13945 13948     1 
13949 13950     1 
13949 13951     1 
13949 13952     1 
13953 13954     1 
13953 13955     1 
13953 13959     1 
13956 13957     1 
13956 13958     1 
13956 13959     1 
13956 13960     1 
13960 13961     1 
13961 13962     1 
13961 13963     1 
13961 13964     1 
13964 13965     1 
13964 13966     1 
13964 13972     1 
13966 13967     1 
13967 13968     1 
13967 13969     1 
13969 13970     1 
13969 13971     1 
13969 13981     1 
13972 13973     1 
13972 13974     1 
13972 13975     1 
13975 13976     1 
13976 13977     1 
13976 13978     1 
13978 13979     1 
13978 13980     1 
13978 14028     1 
13981 13982     1 
13981 13983     1 
13981 13984     1 
13984 13985     1 
13984 13986     1 
13984 13987     1 
13987 13988     1 
13987 13989     1 
13987 13990     1 
13990 13991     1 
13990 13992     1 
13990 13993     1 
13993 13994     1 
13993 13995     1 
13993 13996     1 
13996 13997     1 
13996 13998     1 
13996 13999     1 
13999 14000     1 
13999 14001     1 
14001 14002     1 
14001 14003     1 
14003 14004     1 
14003 14005     1 
14003 14006     1 
14006 14007     1 
14006 14008     1 
14006 14009     1 
14009 14010     1 
14009 14011     1 
14009 14012     1 
14012 14013     1 
14012 14014     1 
14012 14015     1 
14015 14016     1 
14015 14017     1 
14015 14018     1 
14018 14019     1 
14018 14020     1 
14018 14021     1 
14021 14022     1 
14021 14023     1 
14021 14024     1 
14024 14025     1 
14024 14026     1 
14024 14027     1 
14028 14029     1 
14028 14030     1 
14028 14031     1 
14031 14032     1 
14031 14033     1 
14031 14034     1 
14034 14035     1 
14034 14036     1 
14034 14037     1 
14037 14038     1 
14037 14039     1 
14037 14040     1 
14040 14041     1 
14040 14042     1 
14040 14043     1 
14043 14044     1 
14043 14045     1 
14043 14046     1 
14046 14047     1 
14046 14048     1 
14046 14049     1 
14049 14050     1 
14049 14051     1 
14049 14052     1 
14052 14053     1 
14052 14054     1 
14052 14055     1 
14055 14056     1 
14055 14057     1 
14055 14058     1 
14058 14059     1 
14058 14060     1 
14058 14061     1 
14061 14062     1 
14061 14063     1 
14061 14064     1 
14064 14065     1 
14064 14066     1 
14064 14067     1 
14067 14068     1 
14067 14069     1 
14067 14070     1 
14071 14072     1 
14071 14075     1 
14071 14079     1 
14071 14083     1 
14072 14073     1 
14072 14074     1 
14072 14087     1 
14075 14076     1 
14075 14077     1 
14075 14078     1 
14079 14080     1 
14079 14081     1 
14079 14082     1 
14083 14084     1 
14083 14085     1 
14083 14086     1 
14087 14088     1 
14087 14089     1 
14087 14093     1 
14090 14091     1 
14090 14092     1 
14090 14093     1 
14090 14094     1 
14094 14095     1 
14095 14096     1 
14095 14097     1 
14095 14098     1 
14098 14099     1 
14098 14100     1 
14098 14106     1 
14100 14101     1 
14101 14102     1 
14101 14103     1 
14103 14104     1 
14103 14105     1 
14103 14115     1 
14106 14107     1 
14106 14108     1 
14106 14109     1 
14109 14110     1 
14110 14111     1 
14110 14112     1 
14112 14113     1 
14112 14114     1 
14112 14162     1 
14115 14116     1 
14115 14117     1 
14115 14118     1 
14118 14119     1 
14118 14120     1 
14118 14121     1 
14121 14122     1 
14121 14123     1 
14121 14124     1 
14124 14125     1 
14124 14126     1 
14124 14127     1 
14127 14128     1 
14127 14129     1 
14127 14130     1 
14130 14131     1 
14130 14132     1 
14130 14133     1 
14133 14134     1 
14133 14135     1 
14135 14136     1 
14135 14137     1 
14137 14138     1 
14137 14139     1 
14137 14140     1 
14140 14141     1 
14140 14142     1 
14140 14143     1 
14143 14144     1 
14143 14145     1 
14143 14146     1 
14146 14147     1 
14146 14148     1 
14146 14149     1 
14149 14150     1 
14149 14151     1 
14149 14152     1 
14152 14153     1 
14152 14154     1 
14152 14155     1 
14155 14156     1 
14155 14157     1 
14155 14158     1 
14158 14159     1 
14158 14160     1 
14158 14161     1 
14162 14163     1 
14162 14164     1 
14162 14165     1 
14165 14166     1 
14165 14167     1 
14165 14168     1 
14168 14169     1 
14168 14170     1 
14168 14171     1 
14171 14172     1 
14171 14173     1 
14171 14174     1 
14174 14175     1 
14174 14176     1 
14174 14177     1 
14177 14178     1 
14177 14179     1 
14177 14180     1 
14180 14181     1 
14180 14182     1 
14180 14183     1 
14183 14184     1 
14183 14185     1 
14183 14186     1 
14186 14187     1 
14186 14188     1 
14186 14189     1 
14189 14190     1 
14189 14191     1 
14189 14192     1 
14192 14193     1 
14192 14194     1 
14192 14195     1 
14195 14196     1 
14195 14197     1 
14195 14198     1 
14198 14199     1 
14198 14200     1 
14198 14201     1 
14201 14202     1 
14201 14203     1 
14201 14204     1 
14205 14206     1 
14205 14209     1 
14205 14213     1 
14205 14217     1 
14206 14207     1 
14206 14208     1 
14206 14221     1 
14209 14210     1 
14209 14211     1 
14209 14212     1 
14213 14214     1 
14213 14215     1 
14213 14216     1 
14217 14218     1 
14217 14219     1 
14217 14220     1 
14221 14222     1 
14221 14223     1 
14221 14227     1 
14224 14225     1 
14224 14226     1 
14224 14227     1 
14224 14228     1 
14228 14229     1 
14229 14230     1 
14229 14231     1 
14229 14232     1 
14232 14233     1 
14232 14234     1 
14232 14240     1 
14234 14235     1 
14235 14236     1 
14235 14237     1 
14237 14238     1 
14237 14239     1 
14237 14249     1 
14240 14241     1 
14240 14242     1 
14240 14243     1 
14243 14244     1 
14244 14245     1 
14244 14246     1 
14246 14247     1 
14246 14248     1 
14246 14296     1 
14249 14250     1 
14249 14251     1 
14249 14252     1 
14252 14253     1 
14252 14254     1 
14252 14255     1 
14255 14256     1 
14255 14257     1 
14255 14258     1 
14258 14259     1 
14258 14260     1 
14258 14261     1 
14261 14262     1 
14261 14263     1 
14261 14264     1 
14264 14265     1 
14264 14266     1 
14264 14267     1 
14267 14268     1 
14267 14269     1 
14269 14270     1 
14269 14271     1 
14271 14272     1 
14271 14273     1 
14271 14274     1 
14274 14275     1 
14274 14276     1 
14274 14277     1 
14277 14278     1 
14277 14279     1 
14277 14280     1 
14280 14281     1 
14280 14282     1 
14280 14283     1 
14283 14284     1 
14283 14285     1 
14283 14286     1 
14286 14287     1 
14286 14288     1 
14286 14289     1 
14289 14290     1 
14289 14291     1 
14289 14292     1 
14292 14293     1 
14292 14294     1 
14292 14295     1 
14296 14297     1 
14296 14298     1 
14296 14299     1 
14299 14300     1 
14299 14301     1 
14299 14302     1 
14302 14303     1 
14302 14304     1 
14302 14305     1 
14305 14306     1 
14305 14307     1 
14305 14308     1 
14308 14309     1 
14308 14310     1 
14308 14311     1 
14311 14312     1 
14311 14313     1 
14311 14314     1 
14314 14315     1 
14314 14316     1 
14314 14317     1 
14317 14318     1 
14317 14319     1 
14317 14320     1 
14320 14321     1 
14320 14322     1 
14320 14323     1 
14323 14324     1 
14323 14325     1 
14323 14326     1 
14326 14327     1 
14326 14328     1 
14326 14329     1 
14329 14330     1 
14329 14331     1 
14329 14332     1 
14332 14333     1 
14332 14334     1 
14332 14335     1 
14335 14336     1 
14335 14337     1 
14335 14338     1 
14339 14340     1 
14339 14343     1 
14339 14347     1 
14339 14351     1 
14340 14341     1 
14340 14342     1 
14340 14355     1 
14343 14344     1 
14343 14345     1 
14343 14346     1 
14347 14348     1 
14347 14349     1 
14347 14350     1 
14351 14352     1 
14351 14353     1 
14351 14354     1 
14355 14356     1 
14355 14357     1 
14355 14361     1 
14358 14359     1 
14358 14360     1 
14358 14361     1 
14358 14362     1 
14362 14363     1 
14363 14364     1 
14363 14365     1 
14363 14366     1 
14366 14367     1 
14366 14368     1 
14366 14374     1 
14368 14369     1 
14369 14370     1 
14369 14371     1 
14371 14372     1 
14371 14373     1 
14371 14383     1 
14374 14375     1 
14374 14376     1 
14374 14377     1 
14377 14378     1 
14378 14379     1 
14378 14380     1 
14380 14381     1 
14380 14382     1 
14380 14430     1 
14383 14384     1 
14383 14385     1 
14383 14386     1 
14386 14387     1 
14386 14388     1 
14386 14389     1 
14389 14390     1 
14389 14391     1 
14389 14392     1 
14392 14393     1 
14392 14394     1 
14392 14395     1 
14395 14396     1 
14395 14397     1 
14395 14398     1 
14398 14399     1 
14398 14400     1 
14398 14401     1 
14401 14402     1 
14401 14403     1 
14403 14404     1 
14403 14405     1 
14405 14406     1 
14405 14407     1 
14405 14408     1 
14408 14409     1 
14408 14410     1 
14408 14411     1 
14411 14412     1 
14411 14413     1 
14411 14414     1 
14414 14415     1 
14414 14416     1 
14414 14417     1 
14417 14418     1 
14417 14419     1 
14417 14420     1 
14420 14421     1 
14420 14422     1 
14420 14423     1 
14423 14424     1 
14423 14425     1 
14423 14426     1 
14426 14427     1 
14426 14428     1 
14426 14429     1 
14430 14431     1 
14430 14432     1 
14430 14433     1 
14433 14434     1 
14433 14435     1 
14433 14436     1 
14436 14437     1 
14436 14438     1 
14436 14439     1 
14439 14440     1 
14439 14441     1 
14439 14442     1 
14442 14443     1 
14442 14444     1 
14442 14445     1 
14445 14446     1 
14445 14447     1 
14445 14448     1 
14448 14449     1 
14448 14450     1 
14448 14451     1 
14451 14452     1 
14451 14453     1 
14451 14454     1 
14454 14455     1 
14454 14456     1 
14454 14457     1 
14457 14458     1 
14457 14459     1 
14457 14460     1 
14460 14461     1 
14460 14462     1 
14460 14463     1 
14463 14464     1 
14463 14465     1 
14463 14466     1 
14466 14467     1 
14466 14468     1 
14466 14469     1 
14469 14470     1 
14469 14471     1 
14469 14472     1 
14473 14474     1 
14473 14477     1 
14473 14481     1 
14473 14485     1 
14474 14475     1 
14474 14476     1 
14474 14489     1 
14477 14478     1 
14477 14479     1 
14477 14480     1 
14481 14482     1 
14481 14483     1 
14481 14484     1 
14485 14486     1 
14485 14487     1 
14485 14488     1 
14489 14490     1 
14489 14491     1 
14489 14495     1 
14492 14493     1 
14492 14494     1 
14492 14495     1 
14492 14496     1 
14496 14497     1 
14497 14498     1 
14497 14499     1 
14497 14500     1 
14500 14501     1 
14500 14502     1 
14500 14508     1 
14502 14503     1 
14503 14504     1 
14503 14505     1 
14505 14506     1 
14505 14507     1 
14505 14517     1 
14508 14509     1 
14508 14510     1 
14508 14511     1 
14511 14512     1 
14512 14513     1 
14512 14514     1 
14514 14515     1 
14514 14516     1 
14514 14564     1 
14517 14518     1 
14517 14519     1 
14517 14520     1 
14520 14521     1 
14520 14522     1 
14520 14523     1 
14523 14524     1 
14523 14525     1 
14523 14526     1 
14526 14527     1 
14526 14528     1 
14526 14529     1 
14529 14530     1 
14529 14531     1 
14529 14532     1 
14532 14533     1 
14532 14534     1 
14532 14535     1 
14535 14536     1 
14535 14537     1 
14537 14538     1 
14537 14539     1 
14539 14540     1 
14539 14541     1 
14539 14542     1 
14542 14543     1 
14542 14544     1 
14542 14545     1 
14545 14546     1 
14545 14547     1 
14545 14548     1 
14548 14549     1 
14548 14550     1 
14548 14551     1 
14551 14552     1 
14551 14553     1 
14551 14554     1 
14554 14555     1 
14554 14556     1 
14554 14557     1 
14557 14558     1 
14557 14559     1 
14557 14560     1 
14560 14561     1 
14560 14562     1 
14560 14563     1 
14564 14565     1 
14564 14566     1 
14564 14567     1 
14567 14568     1 
14567 14569     1 
14567 14570     1 
14570 14571     1 
14570 14572     1 
14570 14573     1 
14573 14574     1 
14573 14575     1 
14573 14576     1 
14576 14577     1 
14576 14578     1 
14576 14579     1 
14579 14580     1 
14579 14581     1 
14579 14582     1 
14582 14583     1 
14582 14584     1 
14582 14585     1 
14585 14586     1 
14585 14587     1 
14585 14588     1 
14588 14589     1 
14588 14590     1 
14588 14591     1 
14591 14592     1 
14591 14593     1 
14591 14594     1 
14594 14595     1 
14594 14596     1 
14594 14597     1 
14597 14598     1 
14597 14599     1 
14597 14600     1 
14600 14601     1 
14600 14602     1 
14600 14603     1 
14603 14604     1 
14603 14605     1 
14603 14606     1 
14607 14608     1 
14607 14611     1 
14607 14615     1 
14607 14619     1 
14608 14609     1 
14608 14610     1 
14608 14623     1 
14611 14612     1 
14611 14613     1 
14611 14614     1 
14615 14616     1 
14615 14617     1 
14615 14618     1 
14619 14620     1 
14619 14621     1 
14619 14622     1 
14623 14624     1 
14623 14625     1 
14623 14629     1 
14626 14627     1 
14626 14628     1 
14626 14629     1 
14626 14630     1 
14630 14631     1 
14631 14632     1 
14631 14633     1 
14631 14634     1 
14634 14635     1 
14634 14636     1 
14634 14642     1 
14636 14637     1 
14637 14638     1 
14637 14639     1 
14639 14640     1 
14639 14641     1 
14639 14651     1 
14642 14643     1 
14642 14644     1 
14642 14645     1 
14645 14646     1 
14646 14647     1 
14646 14648     1 
14648 14649     1 
14648 14650     1 
14648 14698     1 
14651 14652     1 
14651 14653     1 
14651 14654     1 
14654 14655     1 
14654 14656     1 
14654 14657     1 
14657 14658     1 
14657 14659     1 
14657 14660     1 
14660 14661     1 
14660 14662     1 
14660 14663     1 
14663 14664     1 
14663 14665     1 
14663 14666     1 
14666 14667     1 
14666 14668     1 
14666 14669     1 
14669 14670     1 
14669 14671     1 
14671 14672     1 
14671 14673     1 
14673 14674     1 
14673 14675     1 
14673 14676     1 
14676 14677     1 
14676 14678     1 
14676 14679     1 
14679 14680     1 
14679 14681     1 
14679 14682     1 
14682 14683     1 
14682 14684     1 
14682 14685     1 
14685 14686     1 
14685 14687     1 
14685 14688     1 
14688 14689     1 
14688 14690     1 
14688 14691     1 
14691 14692     1 
14691 14693     1 
14691 14694     1 
14694 14695     1 
14694 14696     1 
14694 14697     1 
14698 14699     1 
14698 14700     1 
14698 14701     1 
14701 14702     1 
14701 14703     1 
14701 14704     1 
14704 14705     1 
14704 14706     1 
14704 14707     1 
14707 14708     1 
14707 14709     1 
14707 14710     1 
14710 14711     1 
14710 14712     1 
14710 14713     1 
14713 14714     1 
14713 14715     1 
14713 14716     1 
14716 14717     1 
14716 14718     1 
14716 14719     1 
14719 14720     1 
14719 14721     1 
14719 14722     1 
14722 14723     1 
14722 14724     1 
14722 14725     1 
14725 14726     1 
14725 14727     1 
14725 14728     1 
14728 14729     1 
14728 14730     1 
14728 14731     1 
14731 14732     1 
14731 14733     1 
14731 14734     1 
14734 14735     1 
14734 14736     1 
14734 14737     1 
14737 14738     1 
14737 14739     1 
14737 14740     1 
14741 14742     1 
14741 14745     1 
14741 14749     1 
14741 14753     1 
14742 14743     1 
14742 14744     1 
14742 14757     1 
14745 14746     1 
14745 14747     1 
14745 14748     1 
14749 14750     1 
14749 14751     1 
14749 14752     1 
14753 14754     1 
14753 14755     1 
14753 14756     1 
14757 14758     1 
14757 14759     1 
14757 14763     1 
14760 14761     1 
14760 14762     1 
14760 14763     1 
14760 14764     1 
14764 14765     1 
14765 14766     1 
14765 14767     1 
14765 14768     1 
14768 14769     1 
14768 14770     1 
14768 14776     1 
14770 14771     1 
14771 14772     1 
14771 14773     1 
14773 14774     1 
14773 14775     1 
14773 14785     1 
14776 14777     1 
14776 14778     1 
14776 14779     1 
14779 14780     1 
14780 14781     1 
14780 14782     1 
14782 14783     1 
14782 14784     1 
14782 14832     1 
14785 14786     1 
14785 14787     1 
14785 14788     1 
14788 14789     1 
14788 14790     1 
14788 14791     1 
14791 14792     1 
14791 14793     1 
14791 14794     1 
14794 14795     1 
14794 14796     1 
14794 14797     1 
14797 14798     1 
14797 14799     1 
14797 14800     1 
14800 14801     1 
14800 14802     1 
14800 14803     1 
14803 14804     1 
14803 14805     1 
14805 14806     1 
14805 14807     1 
14807 14808     1 
14807 14809     1 
14807 14810     1 
14810 14811     1 
14810 14812     1 
14810 14813     1 
14813 14814     1 
14813 14815     1 
14813 14816     1 
14816 14817     1 
14816 14818     1 
14816 14819     1 
14819 14820     1 
14819 14821     1 
14819 14822     1 
14822 14823     1 
14822 14824     1 
14822 14825     1 
14825 14826     1 
14825 14827     1 
14825 14828     1 
14828 14829     1 
14828 14830     1 
14828 14831     1 
14832 14833     1 
14832 14834     1 
14832 14835     1 
14835 14836     1 
14835 14837     1 
14835 14838     1 
14838 14839     1 
14838 14840     1 
14838 14841     1 
14841 14842     1 
14841 14843     1 
14841 14844     1 
14844 14845     1 
14844 14846     1 
14844 14847     1 
14847 14848     1 
14847 14849     1 
14847 14850     1 
14850 14851     1 
14850 14852     1 
14850 14853     1 
14853 14854     1 
14853 14855     1 
14853 14856     1 
14856 14857     1 
14856 14858     1 
14856 14859     1 
14859 14860     1 
14859 14861     1 
14859 14862     1 
14862 14863     1 
14862 14864     1 
14862 14865     1 
14865 14866     1 
14865 14867     1 
14865 14868     1 
14868 14869     1 
14868 14870     1 
14868 14871     1 
14871 14872     1 
14871 14873     1 
14871 14874     1 
14875 14876     1 
14875 14879     1 
14875 14883     1 
14875 14887     1 
14876 14877     1 
14876 14878     1 
14876 14891     1 
14879 14880     1 
14879 14881     1 
14879 14882     1 
14883 14884     1 
14883 14885     1 
14883 14886     1 
14887 14888     1 
14887 14889     1 
14887 14890     1 
14891 14892     1 
14891 14893     1 
14891 14897     1 
14894 14895     1 
14894 14896     1 
14894 14897     1 
14894 14898     1 
14898 14899     1 
14899 14900     1 
14899 14901     1 
14899 14902     1 
14902 14903     1 
14902 14904     1 
14902 14910     1 
14904 14905     1 
14905 14906     1 
14905 14907     1 
14907 14908     1 
14907 14909     1 
14907 14919     1 
14910 14911     1 
14910 14912     1 
14910 14913     1 
14913 14914     1 
14914 14915     1 
14914 14916     1 
14916 14917     1 
14916 14918     1 
14916 14966     1 
14919 14920     1 
14919 14921     1 
14919 14922     1 
14922 14923     1 
14922 14924     1 
14922 14925     1 
14925 14926     1 
14925 14927     1 
14925 14928     1 
14928 14929     1 
14928 14930     1 
14928 14931     1 
14931 14932     1 
14931 14933     1 
14931 14934     1 
14934 14935     1 
14934 14936     1 
14934 14937     1 
14937 14938     1 
14937 14939     1 
14939 14940     1 
14939 14941     1 
14941 14942     1 
14941 14943     1 
14941 14944     1 
14944 14945     1 
14944 14946     1 
14944 14947     1 
14947 14948     1 
14947 14949     1 
14947 14950     1 
14950 14951     1 
14950 14952     1 
14950 14953     1 
14953 14954     1 
14953 14955     1 
14953 14956     1 
14956 14957     1 
14956 14958     1 
14956 14959     1 
14959 14960     1 
14959 14961     1 
14959 14962     1 
14962 14963     1 
14962 14964     1 
14962 14965     1 
14966 14967     1 
14966 14968     1 
14966 14969     1 
14969 14970     1 
14969 14971     1 
14969 14972     1 
14972 14973     1 
14972 14974     1 
14972 14975     1 
14975 14976     1 
14975 14977     1 
14975 14978     1 
14978 14979     1 
14978 14980     1 
14978 14981     1 
14981 14982     1 
14981 14983     1 
14981 14984     1 
14984 14985     1 
14984 14986     1 
14984 14987     1 
14987 14988     1 
14987 14989     1 
14987 14990     1 
14990 14991     1 
14990 14992     1 
14990 14993     1 
14993 14994     1 
14993 14995     1 
14993 14996     1 
14996 14997     1 
14996 14998     1 
14996 14999     1 
14999 15000     1 
14999 15001     1 
14999 15002     1 
15002 15003     1 
15002 15004     1 
15002 15005     1 
15005 15006     1 
15005 15007     1 
15005 15008     1 
15009 15010     1 
15009 15013     1 
15009 15017     1 
15009 15021     1 
15010 15011     1 
15010 15012     1 
15010 15025     1 
15013 15014     1 
15013 15015     1 
15013 15016     1 
15017 15018     1 
15017 15019     1 
15017 15020     1 
15021 15022     1 
15021 15023     1 
15021 15024     1 
15025 15026     1 
15025 15027     1 
15025 15031     1 
15028 15029     1 
15028 15030     1 
15028 15031     1 
15028 15032     1 
15032 15033     1 
15033 15034     1 
15033 15035     1 
15033 15036     1 
15036 15037     1 
15036 15038     1 
15036 15044     1 
15038 15039     1 
15039 15040     1 
15039 15041     1 
15041 15042     1 
15041 15043     1 
15041 15053     1 
15044 15045     1 
15044 15046     1 
15044 15047     1 
15047 15048     1 
15048 15049     1 
15048 15050     1 
15050 15051     1 
15050 15052     1 
15050 15100     1 
15053 15054     1 
15053 15055     1 
15053 15056     1 
15056 15057     1 
15056 15058     1 
15056 15059     1 
15059 15060     1 
15059 15061     1 
15059 15062     1 
15062 15063     1 
15062 15064     1 
15062 15065     1 
15065 15066     1 
15065 15067     1 
15065 15068     1 
15068 15069     1 
15068 15070     1 
15068 15071     1 
15071 15072     1 
15071 15073     1 
15073 15074     1 
15073 15075     1 
15075 15076     1 
15075 15077     1 
15075 15078     1 
15078 15079     1 
15078 15080     1 
15078 15081     1 
15081 15082     1 
15081 15083     1 
15081 15084     1 
15084 15085     1 
15084 15086     1 
15084 15087     1 
15087 15088     1 
15087 15089     1 
15087 15090     1 
15090 15091     1 
15090 15092     1 
15090 15093     1 
15093 15094     1 
15093 15095     1 
15093 15096     1 
15096 15097     1 
15096 15098     1 
15096 15099     1 
15100 15101     1 
15100 15102     1 
15100 15103     1 
15103 15104     1 
15103 15105     1 
15103 15106     1 
15106 15107     1 
15106 15108     1 
15106 15109     1 
15109 15110     1 
15109 15111     1 
15109 15112     1 
15112 15113     1 
15112 15114     1 
15112 15115     1 
15115 15116     1 
15115 15117     1 
15115 15118     1 
15118 15119     1 
15118 15120     1 
15118 15121     1 
15121 15122     1 
15121 15123     1 
15121 15124     1 
15124 15125     1 
15124 15126     1 
15124 15127     1 
15127 15128     1 
15127 15129     1 
15127 15130     1 
15130 15131     1 
15130 15132     1 
15130 15133     1 
15133 15134     1 
15133 15135     1 
15133 15136     1 
15136 15137     1 
15136 15138     1 
15136 15139     1 
15139 15140     1 
15139 15141     1 
15139 15142     1 
15143 15144     1 
15143 15147     1 
15143 15151     1 
15143 15155     1 
15144 15145     1 
15144 15146     1 
15144 15159     1 
15147 15148     1 
15147 15149     1 
15147 15150     1 
15151 15152     1 
15151 15153     1 
15151 15154     1 
15155 15156     1 
15155 15157     1 
15155 15158     1 
15159 15160     1 
15159 15161     1 
15159 15165     1 
15162 15163     1 
15162 15164     1 
15162 15165     1 
15162 15166     1 
15166 15167     1 
15167 15168     1 
15167 15169     1 
15167 15170     1 
15170 15171     1 
15170 15172     1 
15170 15178     1 
15172 15173     1 
15173 15174     1 
15173 15175     1 
15175 15176     1 
15175 15177     1 
15175 15187     1 
15178 15179     1 
15178 15180     1 
15178 15181     1 
15181 15182     1 
15182 15183     1 
15182 15184     1 
15184 15185     1 
15184 15186     1 
15184 15234     1 
15187 15188     1 
15187 15189     1 
15187 15190     1 
15190 15191     1 
15190 15192     1 
15190 15193     1 
15193 15194     1 
15193 15195     1 
15193 15196     1 
15196 15197     1 
15196 15198     1 
15196 15199     1 
15199 15200     1 
15199 15201     1 
15199 15202     1 
15202 15203     1 
15202 15204     1 
15202 15205     1 
15205 15206     1 
15205 15207     1 
15207 15208     1 
15207 15209     1 
15209 15210     1 
15209 15211     1 
15209 15212     1 
15212 15213     1 
15212 15214     1 
15212 15215     1 
15215 15216     1 
15215 15217     1 
15215 15218     1 
15218 15219     1 
15218 15220     1 
15218 15221     1 
15221 15222     1 
15221 15223     1 
15221 15224     1 
15224 15225     1 
15224 15226     1 
15224 15227     1 
15227 15228     1 
15227 15229     1 
15227 15230     1 
15230 15231     1 
15230 15232     1 
15230 15233     1 
15234 15235     1 
15234 15236     1 
15234 15237     1 
15237 15238     1 
15237 15239     1 
15237 15240     1 
15240 15241     1 
15240 15242     1 
15240 15243     1 
15243 15244     1 
15243 15245     1 
15243 15246     1 
15246 15247     1 
15246 15248     1 
15246 15249     1 
15249 15250     1 
15249 15251     1 
15249 15252     1 
15252 15253     1 
15252 15254     1 
15252 15255     1 
15255 15256     1 
15255 15257     1 
15255 15258     1 
15258 15259     1 
15258 15260     1 
15258 15261     1 
15261 15262     1 
15261 15263     1 
15261 15264     1 
15264 15265     1 
15264 15266     1 
15264 15267     1 
15267 15268     1 
15267 15269     1 
15267 15270     1 
15270 15271     1 
15270 15272     1 
15270 15273     1 
15273 15274     1 
15273 15275     1 
15273 15276     1 
15277 15278     1 
15277 15281     1 
15277 15285     1 
15277 15289     1 
15278 15279     1 
15278 15280     1 
15278 15293     1 
15281 15282     1 
15281 15283     1 
15281 15284     1 
15285 15286     1 
15285 15287     1 
15285 15288     1 
15289 15290     1 
15289 15291     1 
15289 15292     1 
15293 15294     1 
15293 15295     1 
15293 15299     1 
15296 15297     1 
15296 15298     1 
15296 15299     1 
15296 15300     1 
15300 15301     1 
15301 15302     1 
15301 15303     1 
15301 15304     1 
15304 15305     1 
15304 15306     1 
15304 15312     1 
15306 15307     1 
15307 15308     1 
15307 15309     1 
15309 15310     1 
15309 15311     1 
15309 15321     1 
15312 15313     1 
15312 15314     1 
15312 15315     1 
15315 15316     1 
15316 15317     1 
15316 15318     1 
15318 15319     1 
15318 15320     1 
15318 15368     1 
15321 15322     1 
15321 15323     1 
15321 15324     1 
15324 15325     1 
15324 15326     1 
15324 15327     1 
15327 15328     1 
15327 15329     1 
15327 15330     1 
15330 15331     1 
15330 15332     1 
15330 15333     1 
15333 15334     1 
15333 15335     1 
15333 15336     1 
15336 15337     1 
15336 15338     1 
15336 15339     1 
15339 15340     1 
15339 15341     1 
15341 15342     1 
15341 15343     1 
15343 15344     1 
15343 15345     1 
15343 15346     1 
15346 15347     1 
15346 15348     1 
15346 15349     1 
15349 15350     1 
15349 15351     1 
15349 15352     1 
15352 15353     1 
15352 15354     1 
15352 15355     1 
15355 15356     1 
15355 15357     1 
15355 15358     1 
15358 15359     1 
15358 15360     1 
15358 15361     1 
15361 15362     1 
15361 15363     1 
15361 15364     1 
15364 15365     1 
15364 15366     1 
15364 15367     1 
15368 15369     1 
15368 15370     1 
15368 15371     1 
15371 15372     1 
15371 15373     1 
15371 15374     1 
15374 15375     1 
15374 15376     1 
15374 15377     1 
15377 15378     1 
15377 15379     1 
15377 15380     1 
15380 15381     1 
15380 15382     1 
15380 15383     1 
15383 15384     1 
15383 15385     1 
15383 15386     1 
15386 15387     1 
15386 15388     1 
15386 15389     1 
15389 15390     1 
15389 15391     1 
15389 15392     1 
15392 15393     1 
15392 15394     1 
15392 15395     1 
15395 15396     1 
15395 15397     1 
15395 15398     1 
15398 15399     1 
15398 15400     1 
15398 15401     1 
15401 15402     1 
15401 15403     1 
15401 15404     1 
15404 15405     1 
15404 15406     1 
15404 15407     1 
15407 15408     1 
15407 15409     1 
15407 15410     1 
15411 15412     1 
15411 15415     1 
15411 15419     1 
15411 15423     1 
15412 15413     1 
15412 15414     1 
15412 15427     1 
15415 15416     1 
15415 15417     1 
15415 15418     1 
15419 15420     1 
15419 15421     1 
15419 15422     1 
15423 15424     1 
15423 15425     1 
15423 15426     1 
15427 15428     1 
15427 15429     1 
15427 15433     1 
15430 15431     1 
15430 15432     1 
15430 15433     1 
15430 15434     1 
15434 15435     1 
15435 15436     1 
15435 15437     1 
15435 15438     1 
15438 15439     1 
15438 15440     1 
15438 15446     1 
15440 15441     1 
15441 15442     1 
15441 15443     1 
15443 15444     1 
15443 15445     1 
15443 15455     1 
15446 15447     1 
15446 15448     1 
15446 15449     1 
15449 15450     1 
15450 15451     1 
15450 15452     1 
15452 15453     1 
15452 15454     1 
15452 15502     1 
15455 15456     1 
15455 15457     1 
15455 15458     1 
15458 15459     1 
15458 15460     1 
15458 15461     1 
15461 15462     1 
15461 15463     1 
15461 15464     1 
15464 15465     1 
15464 15466     1 
15464 15467     1 
15467 15468     1 
15467 15469     1 
15467 15470     1 
15470 15471     1 
15470 15472     1 
15470 15473     1 
15473 15474     1 
15473 15475     1 
15475 15476     1 
15475 15477     1 
15477 15478     1 
15477 15479     1 
15477 15480     1 
15480 15481     1 
15480 15482     1 
15480 15483     1 
15483 15484     1 
15483 15485     1 
15483 15486     1 
15486 15487     1 
15486 15488     1 
15486 15489     1 
15489 15490     1 
15489 15491     1 
15489 15492     1 
15492 15493     1 
15492 15494     1 
15492 15495     1 
15495 15496     1 
15495 15497     1 
15495 15498     1 
15498 15499     1 
15498 15500     1 
15498 15501     1 
15502 15503     1 
15502 15504     1 
15502 15505     1 
15505 15506     1 
15505 15507     1 
15505 15508     1 
15508 15509     1 
15508 15510     1 
15508 15511     1 
15511 15512     1 
15511 15513     1 
15511 15514     1 
15514 15515     1 
15514 15516     1 
15514 15517     1 
15517 15518     1 
15517 15519     1 
15517 15520     1 
15520 15521     1 
15520 15522     1 
15520 15523     1 
15523 15524     1 
15523 15525     1 
15523 15526     1 
15526 15527     1 
15526 15528     1 
15526 15529     1 
15529 15530     1 
15529 15531     1 
15529 15532     1 
15532 15533     1 
15532 15534     1 
15532 15535     1 
15535 15536     1 
15535 15537     1 
15535 15538     1 
15538 15539     1 
15538 15540     1 
15538 15541     1 
15541 15542     1 
15541 15543     1 
15541 15544     1 
15545 15546     1 
15545 15549     1 
15545 15553     1 
15545 15557     1 
15546 15547     1 
15546 15548     1 
15546 15561     1 
15549 15550     1 
15549 15551     1 
15549 15552     1 
15553 15554     1 
15553 15555     1 
15553 15556     1 
15557 15558     1 
15557 15559     1 
15557 15560     1 
15561 15562     1 
15561 15563     1 
15561 15567     1 
15564 15565     1 
15564 15566     1 
15564 15567     1 
15564 15568     1 
15568 15569     1 
15569 15570     1 
15569 15571     1 
15569 15572     1 
15572 15573     1 
15572 15574     1 
15572 15580     1 
15574 15575     1 
15575 15576     1 
15575 15577     1 
15577 15578     1 
15577 15579     1 
15577 15589     1 
15580 15581     1 
15580 15582     1 
15580 15583     1 
15583 15584     1 
15584 15585     1 
15584 15586     1 
15586 15587     1 
15586 15588     1 
15586 15636     1 
15589 15590     1 
15589 15591     1 
15589 15592     1 
15592 15593     1 
15592 15594     1 
15592 15595     1 
15595 15596     1 
15595 15597     1 
15595 15598     1 
15598 15599     1 
15598 15600     1 
15598 15601     1 
15601 15602     1 
15601 15603     1 
15601 15604     1 
15604 15605     1 
15604 15606     1 
15604 15607     1 
15607 15608     1 
15607 15609     1 
15609 15610     1 
15609 15611     1 
15611 15612     1 
15611 15613     1 
15611 15614     1 
15614 15615     1 
15614 15616     1 
15614 15617     1 
15617 15618     1 
15617 15619     1 
15617 15620     1 
15620 15621     1 
15620 15622     1 
15620 15623     1 
15623 15624     1 
15623 15625     1 
15623 15626     1 
15626 15627     1 
15626 15628     1 
15626 15629     1 
15629 15630     1 
15629 15631     1 
15629 15632     1 
15632 15633     1 
15632 15634     1 
15632 15635     1 
15636 15637     1 
15636 15638     1 
15636 15639     1 
15639 15640     1 
15639 15641     1 
15639 15642     1 
15642 15643     1 
15642 15644     1 
15642 15645     1 
15645 15646     1 
15645 15647     1 
15645 15648     1 
15648 15649     1 
15648 15650     1 
15648 15651     1 
15651 15652     1 
15651 15653     1 
15651 15654     1 
15654 15655     1 
15654 15656     1 
15654 15657     1 
15657 15658     1 
15657 15659     1 
15657 15660     1 
15660 15661     1 
15660 15662     1 
15660 15663     1 
15663 15664     1 
15663 15665     1 
15663 15666     1 
15666 15667     1 
15666 15668     1 
15666 15669     1 
15669 15670     1 
15669 15671     1 
15669 15672     1 
15672 15673     1 
15672 15674     1 
15672 15675     1 
15675 15676     1 
15675 15677     1 
15675 15678     1 
15679 15680     1 
15679 15683     1 
15679 15687     1 
15679 15691     1 
15680 15681     1 
15680 15682     1 
15680 15695     1 
15683 15684     1 
15683 15685     1 
15683 15686     1 
15687 15688     1 
15687 15689     1 
15687 15690     1 
15691 15692     1 
15691 15693     1 
15691 15694     1 
15695 15696     1 
15695 15697     1 
15695 15701     1 
15698 15699     1 
15698 15700     1 
15698 15701     1 
15698 15702     1 
15702 15703     1 
15703 15704     1 
15703 15705     1 
15703 15706     1 
15706 15707     1 
15706 15708     1 
15706 15714     1 
15708 15709     1 
15709 15710     1 
15709 15711     1 
15711 15712     1 
15711 15713     1 
15711 15723     1 
15714 15715     1 
15714 15716     1 
15714 15717     1 
15717 15718     1 
15718 15719     1 
15718 15720     1 
15720 15721     1 
15720 15722     1 
15720 15770     1 
15723 15724     1 
15723 15725     1 
15723 15726     1 
15726 15727     1 
15726 15728     1 
15726 15729     1 
15729 15730     1 
15729 15731     1 
15729 15732     1 
15732 15733     1 
15732 15734     1 
15732 15735     1 
15735 15736     1 
15735 15737     1 
15735 15738     1 
15738 15739     1 
15738 15740     1 
15738 15741     1 
15741 15742     1 
15741 15743     1 
15743 15744     1 
15743 15745     1 
15745 15746     1 
15745 15747     1 
15745 15748     1 
15748 15749     1 
15748 15750     1 
15748 15751     1 
15751 15752     1 
15751 15753     1 
15751 15754     1 
15754 15755     1 
15754 15756     1 
15754 15757     1 
15757 15758     1 
15757 15759     1 
15757 15760     1 
15760 15761     1 
15760 15762     1 
15760 15763     1 
15763 15764     1 
15763 15765     1 
15763 15766     1 
15766 15767     1 
15766 15768     1 
15766 15769     1 
15770 15771     1 
15770 15772     1 
15770 15773     1 
15773 15774     1 
15773 15775     1 
15773 15776     1 
15776 15777     1 
15776 15778     1 
15776 15779     1 
15779 15780     1 
15779 15781     1 
15779 15782     1 
15782 15783     1 
15782 15784     1 
15782 15785     1 
15785 15786     1 
15785 15787     1 
15785 15788     1 
15788 15789     1 
15788 15790     1 
15788 15791     1 
15791 15792     1 
15791 15793     1 
15791 15794     1 
15794 15795     1 
15794 15796     1 
15794 15797     1 
15797 15798     1 
15797 15799     1 
15797 15800     1 
15800 15801     1 
15800 15802     1 
15800 15803     1 
15803 15804     1 
15803 15805     1 
15803 15806     1 
15806 15807     1 
15806 15808     1 
15806 15809     1 
15809 15810     1 
15809 15811     1 
15809 15812     1 
15813 15814     1 
15813 15817     1 
15813 15821     1 
15813 15825     1 
15814 15815     1 
15814 15816     1 
15814 15829     1 
15817 15818     1 
15817 15819     1 
15817 15820     1 
15821 15822     1 
15821 15823     1 
15821 15824     1 
15825 15826     1 
15825 15827     1 
15825 15828     1 
15829 15830     1 
15829 15831     1 
15829 15835     1 
15832 15833     1 
15832 15834     1 
15832 15835     1 
15832 15836     1 
15836 15837     1 
15837 15838     1 
15837 15839     1 
15837 15840     1 
15840 15841     1 
15840 15842     1 
15840 15848     1 
15842 15843     1 
15843 15844     1 
15843 15845     1 
15845 15846     1 
15845 15847     1 
15845 15857     1 
15848 15849     1 
15848 15850     1 
15848 15851     1 
15851 15852     1 
15852 15853     1 
15852 15854     1 
15854 15855     1 
15854 15856     1 
15854 15904     1 
15857 15858     1 
15857 15859     1 
15857 15860     1 
15860 15861     1 
15860 15862     1 
15860 15863     1 
15863 15864     1 
15863 15865     1 
15863 15866     1 
15866 15867     1 
15866 15868     1 
15866 15869     1 
15869 15870     1 
15869 15871     1 
15869 15872     1 
15872 15873     1 
15872 15874     1 
15872 15875     1 
15875 15876     1 
15875 15877     1 
15877 15878     1 
15877 15879     1 
15879 15880     1 
15879 15881     1 
15879 15882     1 
15882 15883     1 
15882 15884     1 
15882 15885     1 
15885 15886     1 
15885 15887     1 
15885 15888     1 
15888 15889     1 
15888 15890     1 
15888 15891     1 
15891 15892     1 
15891 15893     1 
15891 15894     1 
15894 15895     1 
15894 15896     1 
15894 15897     1 
15897 15898     1 
15897 15899     1 
15897 15900     1 
15900 15901     1 
15900 15902     1 
15900 15903     1 
15904 15905     1 
15904 15906     1 
15904 15907     1 
15907 15908     1 
15907 15909     1 
15907 15910     1 
15910 15911     1 
15910 15912     1 
15910 15913     1 
15913 15914     1 
15913 15915     1 
15913 15916     1 
15916 15917     1 
15916 15918     1 
15916 15919     1 
15919 15920     1 
15919 15921     1 
15919 15922     1 
15922 15923     1 
15922 15924     1 
15922 15925     1 
15925 15926     1 
15925 15927     1 
15925 15928     1 
15928 15929     1 
15928 15930     1 
15928 15931     1 
15931 15932     1 
15931 15933     1 
15931 15934     1 
15934 15935     1 
15934 15936     1 
15934 15937     1 
15937 15938     1 
15937 15939     1 
15937 15940     1 
15940 15941     1 
15940 15942     1 
15940 15943     1 
15943 15944     1 
15943 15945     1 
15943 15946     1 
15947 15948     1 
15947 15951     1 
15947 15955     1 
15947 15959     1 
15948 15949     1 
15948 15950     1 
15948 15963     1 
15951 15952     1 
15951 15953     1 
15951 15954     1 
15955 15956     1 
15955 15957     1 
15955 15958     1 
15959 15960     1 
15959 15961     1 
15959 15962     1 
15963 15964     1 
15963 15965     1 
15963 15969     1 
15966 15967     1 
15966 15968     1 
15966 15969     1 
15966 15970     1 
15970 15971     1 
15971 15972     1 
15971 15973     1 
15971 15974     1 
15974 15975     1 
15974 15976     1 
15974 15982     1 
15976 15977     1 
15977 15978     1 
15977 15979     1 
15979 15980     1 
15979 15981     1 
15979 15991     1 
15982 15983     1 
15982 15984     1 
15982 15985     1 
15985 15986     1 
15986 15987     1 
15986 15988     1 
15988 15989     1 
15988 15990     1 
15988 16038     1 
15991 15992     1 
15991 15993     1 
15991 15994     1 
15994 15995     1 
15994 15996     1 
15994 15997     1 
15997 15998     1 
15997 15999     1 
15997 16000     1 
16000 16001     1 
16000 16002     1 
16000 16003     1 
16003 16004     1 
16003 16005     1 
16003 16006     1 
16006 16007     1 
16006 16008     1 
16006 16009     1 
16009 16010     1 
16009 16011     1 
16011 16012     1 
16011 16013     1 
16013 16014     1 
16013 16015     1 
16013 16016     1 
16016 16017     1 
16016 16018     1 
16016 16019     1 
16019 16020     1 
16019 16021     1 
16019 16022     1 
16022 16023     1 
16022 16024     1 
16022 16025     1 
16025 16026     1 
16025 16027     1 
16025 16028     1 
16028 16029     1 
16028 16030     1 
16028 16031     1 
16031 16032     1 
16031 16033     1 
16031 16034     1 
16034 16035     1 
16034 16036     1 
16034 16037     1 
16038 16039     1 
16038 16040     1 
16038 16041     1 
16041 16042     1 
16041 16043     1 
16041 16044     1 
16044 16045     1 
16044 16046     1 
16044 16047     1 
16047 16048     1 
16047 16049     1 
16047 16050     1 
16050 16051     1 
16050 16052     1 
16050 16053     1 
16053 16054     1 
16053 16055     1 
16053 16056     1 
16056 16057     1 
16056 16058     1 
16056 16059     1 
16059 16060     1 
16059 16061     1 
16059 16062     1 
16062 16063     1 
16062 16064     1 
16062 16065     1 
16065 16066     1 
16065 16067     1 
16065 16068     1 
16068 16069     1 
16068 16070     1 
16068 16071     1 
16071 16072     1 
16071 16073     1 
16071 16074     1 
16074 16075     1 
16074 16076     1 
16074 16077     1 
16077 16078     1 
16077 16079     1 
16077 16080     1 
16081 16082     1 
16081 16085     1 
16081 16089     1 
16081 16093     1 
16082 16083     1 
16082 16084     1 
16082 16097     1 
16085 16086     1 
16085 16087     1 
16085 16088     1 
16089 16090     1 
16089 16091     1 
16089 16092     1 
16093 16094     1 
16093 16095     1 
16093 16096     1 
16097 16098     1 
16097 16099     1 
16097 16103     1 
16100 16101     1 
16100 16102     1 
16100 16103     1 
16100 16104     1 
16104 16105     1 
16105 16106     1 
16105 16107     1 
16105 16108     1 
16108 16109     1 
16108 16110     1 
16108 16116     1 
16110 16111     1 
16111 16112     1 
16111 16113     1 
16113 16114     1 
16113 16115     1 
16113 16125     1 
16116 16117     1 
16116 16118     1 
16116 16119     1 
16119 16120     1 
16120 16121     1 
16120 16122     1 
16122 16123     1 
16122 16124     1 
16122 16172     1 
16125 16126     1 
16125 16127     1 
16125 16128     1 
16128 16129     1 
16128 16130     1 
16128 16131     1 
16131 16132     1 
16131 16133     1 
16131 16134     1 
16134 16135     1 
16134 16136     1 
16134 16137     1 
16137 16138     1 
16137 16139     1 
16137 16140     1 
16140 16141     1 
16140 16142     1 
16140 16143     1 
16143 16144     1 
16143 16145     1 
16145 16146     1 
16145 16147     1 
16147 16148     1 
16147 16149     1 
16147 16150     1 
16150 16151     1 
16150 16152     1 
16150 16153     1 
16153 16154     1 
16153 16155     1 
16153 16156     1 
16156 16157     1 
16156 16158     1 
16156 16159     1 
16159 16160     1 
16159 16161     1 
16159 16162     1 
16162 16163     1 
16162 16164     1 
16162 16165     1 
16165 16166     1 
16165 16167     1 
16165 16168     1 
16168 16169     1 
16168 16170     1 
16168 16171     1 
16172 16173     1 
16172 16174     1 
16172 16175     1 
16175 16176     1 
16175 16177     1 
16175 16178     1 
16178 16179     1 
16178 16180     1 
16178 16181     1 
16181 16182     1 
16181 16183     1 
16181 16184     1 
16184 16185     1 
16184 16186     1 
16184 16187     1 
16187 16188     1 
16187 16189     1 
16187 16190     1 
16190 16191     1 
16190 16192     1 
16190 16193     1 
16193 16194     1 
16193 16195     1 
16193 16196     1 
16196 16197     1 
16196 16198     1 
16196 16199     1 
16199 16200     1 
16199 16201     1 
16199 16202     1 
16202 16203     1 
16202 16204     1 
16202 16205     1 
16205 16206     1 
16205 16207     1 
16205 16208     1 
16208 16209     1 
16208 16210     1 
16208 16211     1 
16211 16212     1 
16211 16213     1 
16211 16214     1 
16215 16216     1 
16215 16219     1 
16215 16223     1 
16215 16227     1 
16216 16217     1 
16216 16218     1 
16216 16231     1 
16219 16220     1 
16219 16221     1 
16219 16222     1 
16223 16224     1 
16223 16225     1 
16223 16226     1 
16227 16228     1 
16227 16229     1 
16227 16230     1 
16231 16232     1 
16231 16233     1 
16231 16237     1 
16234 16235     1 
16234 16236     1 
16234 16237     1 
16234 16238     1 
16238 16239     1 
16239 16240     1 
16239 16241     1 
16239 16242     1 
16242 16243     1 
16242 16244     1 
16242 16250     1 
16244 16245     1 
16245 16246     1 
16245 16247     1 
16247 16248     1 
16247 16249     1 
16247 16259     1 
16250 16251     1 
16250 16252     1 
16250 16253     1 
16253 16254     1 
16254 16255     1 
16254 16256     1 
16256 16257     1 
16256 16258     1 
16256 16306     1 
16259 16260     1 
16259 16261     1 
16259 16262     1 
16262 16263     1 
16262 16264     1 
16262 16265     1 
16265 16266     1 
16265 16267     1 
16265 16268     1 
16268 16269     1 
16268 16270     1 
16268 16271     1 
16271 16272     1 
16271 16273     1 
16271 16274     1 
16274 16275     1 
16274 16276     1 
16274 16277     1 
16277 16278     1 
16277 16279     1 
16279 16280     1 
16279 16281     1 
16281 16282     1 
16281 16283     1 
16281 16284     1 
16284 16285     1 
16284 16286     1 
16284 16287     1 
16287 16288     1 
16287 16289     1 
16287 16290     1 
16290 16291     1 
16290 16292     1 
16290 16293     1 
16293 16294     1 
16293 16295     1 
16293 16296     1 
16296 16297     1 
16296 16298     1 
16296 16299     1 
16299 16300     1 
16299 16301     1 
16299 16302     1 
16302 16303     1 
16302 16304     1 
16302 16305     1 
16306 16307     1 
16306 16308     1 
16306 16309     1 
16309 16310     1 
16309 16311     1 
16309 16312     1 
16312 16313     1 
16312 16314     1 
16312 16315     1 
16315 16316     1 
16315 16317     1 
16315 16318     1 
16318 16319     1 
16318 16320     1 
16318 16321     1 
16321 16322     1 
16321 16323     1 
16321 16324     1 
16324 16325     1 
16324 16326     1 
16324 16327     1 
16327 16328     1 
16327 16329     1 
16327 16330     1 
16330 16331     1 
16330 16332     1 
16330 16333     1 
16333 16334     1 
16333 16335     1 
16333 16336     1 
16336 16337     1 
16336 16338     1 
16336 16339     1 
16339 16340     1 
16339 16341     1 
16339 16342     1 
16342 16343     1 
16342 16344     1 
16342 16345     1 
16345 16346     1 
16345 16347     1 
16345 16348     1 
16349 16350     1 
16349 16353     1 
16349 16357     1 
16349 16361     1 
16350 16351     1 
16350 16352     1 
16350 16365     1 
16353 16354     1 
16353 16355     1 
16353 16356     1 
16357 16358     1 
16357 16359     1 
16357 16360     1 
16361 16362     1 
16361 16363     1 
16361 16364     1 
16365 16366     1 
16365 16367     1 
16365 16371     1 
16368 16369     1 
16368 16370     1 
16368 16371     1 
16368 16372     1 
16372 16373     1 
16373 16374     1 
16373 16375     1 
16373 16376     1 
16376 16377     1 
16376 16378     1 
16376 16384     1 
16378 16379     1 
16379 16380     1 
16379 16381     1 
16381 16382     1 
16381 16383     1 
16381 16393     1 
16384 16385     1 
16384 16386     1 
16384 16387     1 
16387 16388     1 
16388 16389     1 
16388 16390     1 
16390 16391     1 
16390 16392     1 
16390 16440     1 
16393 16394     1 
16393 16395     1 
16393 16396     1 
16396 16397     1 
16396 16398     1 
16396 16399     1 
16399 16400     1 
16399 16401     1 
16399 16402     1 
16402 16403     1 
16402 16404     1 
16402 16405     1 
16405 16406     1 
16405 16407     1 
16405 16408     1 
16408 16409     1 
16408 16410     1 
16408 16411     1 
16411 16412     1 
16411 16413     1 
16413 16414     1 
16413 16415     1 
16415 16416     1 
16415 16417     1 
16415 16418     1 
16418 16419     1 
16418 16420     1 
16418 16421     1 
16421 16422     1 
16421 16423     1 
16421 16424     1 
16424 16425     1 
16424 16426     1 
16424 16427     1 
16427 16428     1 
16427 16429     1 
16427 16430     1 
16430 16431     1 
16430 16432     1 
16430 16433     1 
16433 16434     1 
16433 16435     1 
16433 16436     1 
16436 16437     1 
16436 16438     1 
16436 16439     1 
16440 16441     1 
16440 16442     1 
16440 16443     1 
16443 16444     1 
16443 16445     1 
16443 16446     1 
16446 16447     1 
16446 16448     1 
16446 16449     1 
16449 16450     1 
16449 16451     1 
16449 16452     1 
16452 16453     1 
16452 16454     1 
16452 16455     1 
16455 16456     1 
16455 16457     1 
16455 16458     1 
16458 16459     1 
16458 16460     1 
16458 16461     1 
16461 16462     1 
16461 16463     1 
16461 16464     1 
16464 16465     1 
16464 16466     1 
16464 16467     1 
16467 16468     1 
16467 16469     1 
16467 16470     1 
16470 16471     1 
16470 16472     1 
16470 16473     1 
16473 16474     1 
16473 16475     1 
16473 16476     1 
16476 16477     1 
16476 16478     1 
16476 16479     1 
16479 16480     1 
16479 16481     1 
16479 16482     1 
16483 16484     1 
16483 16487     1 
16483 16491     1 
16483 16495     1 
16484 16485     1 
16484 16486     1 
16484 16499     1 
16487 16488     1 
16487 16489     1 
16487 16490     1 
16491 16492     1 
16491 16493     1 
16491 16494     1 
16495 16496     1 
16495 16497     1 
16495 16498     1 
16499 16500     1 
16499 16501     1 
16499 16505     1 
16502 16503     1 
16502 16504     1 
16502 16505     1 
16502 16506     1 
16506 16507     1 
16507 16508     1 
16507 16509     1 
16507 16510     1 
16510 16511     1 
16510 16512     1 
16510 16518     1 
16512 16513     1 
16513 16514     1 
16513 16515     1 
16515 16516     1 
16515 16517     1 
16515 16527     1 
16518 16519     1 
16518 16520     1 
16518 16521     1 
16521 16522     1 
16522 16523     1 
16522 16524     1 
16524 16525     1 
16524 16526     1 
16524 16574     1 
16527 16528     1 
16527 16529     1 
16527 16530     1 
16530 16531     1 
16530 16532     1 
16530 16533     1 
16533 16534     1 
16533 16535     1 
16533 16536     1 
16536 16537     1 
16536 16538     1 
16536 16539     1 
16539 16540     1 
16539 16541     1 
16539 16542     1 
16542 16543     1 
16542 16544     1 
16542 16545     1 
16545 16546     1 
16545 16547     1 
16547 16548     1 
16547 16549     1 
16549 16550     1 
16549 16551     1 
16549 16552     1 
16552 16553     1 
16552 16554     1 
16552 16555     1 
16555 16556     1 
16555 16557     1 
16555 16558     1 
16558 16559     1 
16558 16560     1 
16558 16561     1 
16561 16562     1 
16561 16563     1 
16561 16564     1 
16564 16565     1 
16564 16566     1 
16564 16567     1 
16567 16568     1 
16567 16569     1 
16567 16570     1 
16570 16571     1 
16570 16572     1 
16570 16573     1 
16574 16575     1 
16574 16576     1 
16574 16577     1 
16577 16578     1 
16577 16579     1 
16577 16580     1 
16580 16581     1 
16580 16582     1 
16580 16583     1 
16583 16584     1 
16583 16585     1 
16583 16586     1 
16586 16587     1 
16586 16588     1 
16586 16589     1 
16589 16590     1 
16589 16591     1 
16589 16592     1 
16592 16593     1 
16592 16594     1 
16592 16595     1 
16595 16596     1 
16595 16597     1 
16595 16598     1 
16598 16599     1 
16598 16600     1 
16598 16601     1 
16601 16602     1 
16601 16603     1 
16601 16604     1 
16604 16605     1 
16604 16606     1 
16604 16607     1 
16607 16608     1 
16607 16609     1 
16607 16610     1 
16610 16611     1 
16610 16612     1 
16610 16613     1 
16613 16614     1 
16613 16615     1 
16613 16616     1 
16617 16618     1 
16617 16621     1 
16617 16625     1 
16617 16629     1 
16618 16619     1 
16618 16620     1 
16618 16633     1 
16621 16622     1 
16621 16623     1 
16621 16624     1 
16625 16626     1 
16625 16627     1 
16625 16628     1 
16629 16630     1 
16629 16631     1 
16629 16632     1 
16633 16634     1 
16633 16635     1 
16633 16639     1 
16636 16637     1 
16636 16638     1 
16636 16639     1 
16636 16640     1 
16640 16641     1 
16641 16642     1 
16641 16643     1 
16641 16644     1 
16644 16645     1 
16644 16646     1 
16644 16652     1 
16646 16647     1 
16647 16648     1 
16647 16649     1 
16649 16650     1 
16649 16651     1 
16649 16661     1 
16652 16653     1 
16652 16654     1 
16652 16655     1 
16655 16656     1 
16656 16657     1 
16656 16658     1 
16658 16659     1 
16658 16660     1 
16658 16708     1 
16661 16662     1 
16661 16663     1 
16661 16664     1 
16664 16665     1 
16664 16666     1 
16664 16667     1 
16667 16668     1 
16667 16669     1 
16667 16670     1 
16670 16671     1 
16670 16672     1 
16670 16673     1 
16673 16674     1 
16673 16675     1 
16673 16676     1 
16676 16677     1 
16676 16678     1 
16676 16679     1 
16679 16680     1 
16679 16681     1 
16681 16682     1 
16681 16683     1 
16683 16684     1 
16683 16685     1 
16683 16686     1 
16686 16687     1 
16686 16688     1 
16686 16689     1 
16689 16690     1 
16689 16691     1 
16689 16692     1 
16692 16693     1 
16692 16694     1 
16692 16695     1 
16695 16696     1 
16695 16697     1 
16695 16698     1 
16698 16699     1 
16698 16700     1 
16698 16701     1 
16701 16702     1 
16701 16703     1 
16701 16704     1 
16704 16705     1 
16704 16706     1 
16704 16707     1 
16708 16709     1 
16708 16710     1 
16708 16711     1 
16711 16712     1 
16711 16713     1 
16711 16714     1 
16714 16715     1 
16714 16716     1 
16714 16717     1 
16717 16718     1 
16717 16719     1 
16717 16720     1 
16720 16721     1 
16720 16722     1 
16720 16723     1 
16723 16724     1 
16723 16725     1 
16723 16726     1 
16726 16727     1 
16726 16728     1 
16726 16729     1 
16729 16730     1 
16729 16731     1 
16729 16732     1 
16732 16733     1 
16732 16734     1 
16732 16735     1 
16735 16736     1 
16735 16737     1 
16735 16738     1 
16738 16739     1 
16738 16740     1 
16738 16741     1 
16741 16742     1 
16741 16743     1 
16741 16744     1 
16744 16745     1 
16744 16746     1 
16744 16747     1 
16747 16748     1 
16747 16749     1 
16747 16750     1 
16751 16752     1 
16751 16755     1 
16751 16759     1 
16751 16763     1 
16752 16753     1 
16752 16754     1 
16752 16767     1 
16755 16756     1 
16755 16757     1 
16755 16758     1 
16759 16760     1 
16759 16761     1 
16759 16762     1 
16763 16764     1 
16763 16765     1 
16763 16766     1 
16767 16768     1 
16767 16769     1 
16767 16773     1 
16770 16771     1 
16770 16772     1 
16770 16773     1 
16770 16774     1 
16774 16775     1 
16775 16776     1 
16775 16777     1 
16775 16778     1 
16778 16779     1 
16778 16780     1 
16778 16786     1 
16780 16781     1 
16781 16782     1 
16781 16783     1 
16783 16784     1 
16783 16785     1 
16783 16795     1 
16786 16787     1 
16786 16788     1 
16786 16789     1 
16789 16790     1 
16790 16791     1 
16790 16792     1 
16792 16793     1 
16792 16794     1 
16792 16842     1 
16795 16796     1 
16795 16797     1 
16795 16798     1 
16798 16799     1 
16798 16800     1 
16798 16801     1 
16801 16802     1 
16801 16803     1 
16801 16804     1 
16804 16805     1 
16804 16806     1 
16804 16807     1 
16807 16808     1 
16807 16809     1 
16807 16810     1 
16810 16811     1 
16810 16812     1 
16810 16813     1 
16813 16814     1 
16813 16815     1 
16815 16816     1 
16815 16817     1 
16817 16818     1 
16817 16819     1 
16817 16820     1 
16820 16821     1 
16820 16822     1 
16820 16823     1 
16823 16824     1 
16823 16825     1 
16823 16826     1 
16826 16827     1 
16826 16828     1 
16826 16829     1 
16829 16830     1 
16829 16831     1 
16829 16832     1 
16832 16833     1 
16832 16834     1 
16832 16835     1 
16835 16836     1 
16835 16837     1 
16835 16838     1 
16838 16839     1 
16838 16840     1 
16838 16841     1 
16842 16843     1 
16842 16844     1 
16842 16845     1 
16845 16846     1 
16845 16847     1 
16845 16848     1 
16848 16849     1 
16848 16850     1 
16848 16851     1 
16851 16852     1 
16851 16853     1 
16851 16854     1 
16854 16855     1 
16854 16856     1 
16854 16857     1 
16857 16858     1 
16857 16859     1 
16857 16860     1 
16860 16861     1 
16860 16862     1 
16860 16863     1 
16863 16864     1 
16863 16865     1 
16863 16866     1 
16866 16867     1 
16866 16868     1 
16866 16869     1 
16869 16870     1 
16869 16871     1 
16869 16872     1 
16872 16873     1 
16872 16874     1 
16872 16875     1 
16875 16876     1 
16875 16877     1 
16875 16878     1 
16878 16879     1 
16878 16880     1 
16878 16881     1 
16881 16882     1 
16881 16883     1 
16881 16884     1 
16885 16886     1 
16885 16889     1 
16885 16893     1 
16885 16897     1 
16886 16887     1 
16886 16888     1 
16886 16901     1 
16889 16890     1 
16889 16891     1 
16889 16892     1 
16893 16894     1 
16893 16895     1 
16893 16896     1 
16897 16898     1 
16897 16899     1 
16897 16900     1 
16901 16902     1 
16901 16903     1 
16901 16907     1 
16904 16905     1 
16904 16906     1 
16904 16907     1 
16904 16908     1 
16908 16909     1 
16909 16910     1 
16909 16911     1 
16909 16912     1 
16912 16913     1 
16912 16914     1 
16912 16920     1 
16914 16915     1 
16915 16916     1 
16915 16917     1 
16917 16918     1 
16917 16919     1 
16917 16929     1 
16920 16921     1 
16920 16922     1 
16920 16923     1 
16923 16924     1 
16924 16925     1 
16924 16926     1 
16926 16927     1 
16926 16928     1 
16926 16976     1 
16929 16930     1 
16929 16931     1 
16929 16932     1 
16932 16933     1 
16932 16934     1 
16932 16935     1 
16935 16936     1 
16935 16937     1 
16935 16938     1 
16938 16939     1 
16938 16940     1 
16938 16941     1 
16941 16942     1 
16941 16943     1 
16941 16944     1 
16944 16945     1 
16944 16946     1 
16944 16947     1 
16947 16948     1 
16947 16949     1 
16949 16950     1 
16949 16951     1 
16951 16952     1 
16951 16953     1 
16951 16954     1 
16954 16955     1 
16954 16956     1 
16954 16957     1 
16957 16958     1 
16957 16959     1 
16957 16960     1 
16960 16961     1 
16960 16962     1 
16960 16963     1 
16963 16964     1 
16963 16965     1 
16963 16966     1 
16966 16967     1 
16966 16968     1 
16966 16969     1 
16969 16970     1 
16969 16971     1 
16969 16972     1 
16972 16973     1 
16972 16974     1 
16972 16975     1 
16976 16977     1 
16976 16978     1 
16976 16979     1 
16979 16980     1 
16979 16981     1 
16979 16982     1 
16982 16983     1 
16982 16984     1 
16982 16985     1 
16985 16986     1 
16985 16987     1 
16985 16988     1 
16988 16989     1 
16988 16990     1 
16988 16991     1 
16991 16992     1 
16991 16993     1 
16991 16994     1 
16994 16995     1 
16994 16996     1 
16994 16997     1 
16997 16998     1 
16997 16999     1 
16997 17000     1 
17000 17001     1 
17000 17002     1 
17000 17003     1 
17003 17004     1 
17003 17005     1 
17003 17006     1 
17006 17007     1 
17006 17008     1 
17006 17009     1 
17009 17010     1 
17009 17011     1 
17009 17012     1 
17012 17013     1 
17012 17014     1 
17012 17015     1 
17015 17016     1 
17015 17017     1 
17015 17018     1 
17019 17020     1 
17019 17023     1 
17019 17027     1 
17019 17031     1 
17020 17021     1 
17020 17022     1 
17020 17035     1 
17023 17024     1 
17023 17025     1 
17023 17026     1 
17027 17028     1 
17027 17029     1 
17027 17030     1 
17031 17032     1 
17031 17033     1 
17031 17034     1 
17035 17036     1 
17035 17037     1 
17035 17041     1 
17038 17039     1 
17038 17040     1 
17038 17041     1 
17038 17042     1 
17042 17043     1 
17043 17044     1 
17043 17045     1 
17043 17046     1 
17046 17047     1 
17046 17048     1 
17046 17054     1 
17048 17049     1 
17049 17050     1 
17049 17051     1 
17051 17052     1 
17051 17053     1 
17051 17063     1 
17054 17055     1 
17054 17056     1 
17054 17057     1 
17057 17058     1 
17058 17059     1 
17058 17060     1 
17060 17061     1 
17060 17062     1 
17060 17110     1 
17063 17064     1 
17063 17065     1 
17063 17066     1 
17066 17067     1 
17066 17068     1 
17066 17069     1 
17069 17070     1 
17069 17071     1 
17069 17072     1 
17072 17073     1 
17072 17074     1 
17072 17075     1 
17075 17076     1 
17075 17077     1 
17075 17078     1 
17078 17079     1 
17078 17080     1 
17078 17081     1 
17081 17082     1 
17081 17083     1 
17083 17084     1 
17083 17085     1 
17085 17086     1 
17085 17087     1 
17085 17088     1 
17088 17089     1 
17088 17090     1 
17088 17091     1 
17091 17092     1 
17091 17093     1 
17091 17094     1 
17094 17095     1 
17094 17096     1 
17094 17097     1 
17097 17098     1 
17097 17099     1 
17097 17100     1 
17100 17101     1 
17100 17102     1 
17100 17103     1 
17103 17104     1 
17103 17105     1 
17103 17106     1 
17106 17107     1 
17106 17108     1 
17106 17109     1 
17110 17111     1 
17110 17112     1 
17110 17113     1 
17113 17114     1 
17113 17115     1 
17113 17116     1 
17116 17117     1 
17116 17118     1 
17116 17119     1 
17119 17120     1 
17119 17121     1 
17119 17122     1 
17122 17123     1 
17122 17124     1 
17122 17125     1 
17125 17126     1 
17125 17127     1 
17125 17128     1 
17128 17129     1 
17128 17130     1 
17128 17131     1 
17131 17132     1 
17131 17133     1 
17131 17134     1 
17134 17135     1 
17134 17136     1 
17134 17137     1 
17137 17138     1 
17137 17139     1 
17137 17140     1 
17140 17141     1 
17140 17142     1 
17140 17143     1 
17143 17144     1 
17143 17145     1 
17143 17146     1 
17146 17147     1 
17146 17148     1 
17146 17149     1 
17149 17150     1 
17149 17151     1 
17149 17152     1 
17153 17154     1 
17153 17157     1 
17153 17161     1 
17153 17165     1 
17154 17155     1 
17154 17156     1 
17154 17169     1 
17157 17158     1 
17157 17159     1 
17157 17160     1 
17161 17162     1 
17161 17163     1 
17161 17164     1 
17165 17166     1 
17165 17167     1 
17165 17168     1 
17169 17170     1 
17169 17171     1 
17169 17175     1 
17172 17173     1 
17172 17174     1 
17172 17175     1 
17172 17176     1 
17176 17177     1 
17177 17178     1 
17177 17179     1 
17177 17180     1 
17180 17181     1 
17180 17182     1 
17180 17188     1 
17182 17183     1 
17183 17184     1 
17183 17185     1 
17185 17186     1 
17185 17187     1 
17185 17197     1 
17188 17189     1 
17188 17190     1 
17188 17191     1 
17191 17192     1 
17192 17193     1 
17192 17194     1 
17194 17195     1 
17194 17196     1 
17194 17244     1 
17197 17198     1 
17197 17199     1 
17197 17200     1 
17200 17201     1 
17200 17202     1 
17200 17203     1 
17203 17204     1 
17203 17205     1 
17203 17206     1 
17206 17207     1 
17206 17208     1 
17206 17209     1 
17209 17210     1 
17209 17211     1 
17209 17212     1 
17212 17213     1 
17212 17214     1 
17212 17215     1 
17215 17216     1 
17215 17217     1 
17217 17218     1 
17217 17219     1 
17219 17220     1 
17219 17221     1 
17219 17222     1 
17222 17223     1 
17222 17224     1 
17222 17225     1 
17225 17226     1 
17225 17227     1 
17225 17228     1 
17228 17229     1 
17228 17230     1 
17228 17231     1 
17231 17232     1 
17231 17233     1 
17231 17234     1 
17234 17235     1 
17234 17236     1 
17234 17237     1 
17237 17238     1 
17237 17239     1 
17237 17240     1 
17240 17241     1 
17240 17242     1 
17240 17243     1 
17244 17245     1 
17244 17246     1 
17244 17247     1 
17247 17248     1 
17247 17249     1 
17247 17250     1 
17250 17251     1 
17250 17252     1 
17250 17253     1 
17253 17254     1 
17253 17255     1 
17253 17256     1 
17256 17257     1 
17256 17258     1 
17256 17259     1 
17259 17260     1 
17259 17261     1 
17259 17262     1 
17262 17263     1 
17262 17264     1 
17262 17265     1 
17265 17266     1 
17265 17267     1 
17265 17268     1 
17268 17269     1 
17268 17270     1 
17268 17271     1 
17271 17272     1 
17271 17273     1 
17271 17274     1 
17274 17275     1 
17274 17276     1 
17274 17277     1 
17277 17278     1 
17277 17279     1 
17277 17280     1 
17280 17281     1 
17280 17282     1 
17280 17283     1 
17283 17284     1 
17283 17285     1 
17283 17286     1 
17287 17288     1 
17287 17291     1 
17287 17295     1 
17287 17299     1 
17288 17289     1 
17288 17290     1 
17288 17303     1 
17291 17292     1 
17291 17293     1 
17291 17294     1 
17295 17296     1 
17295 17297     1 
17295 17298     1 
17299 17300     1 
17299 17301     1 
17299 17302     1 
17303 17304     1 
17303 17305     1 
17303 17309     1 
17306 17307     1 
17306 17308     1 
17306 17309     1 
17306 17310     1 
17310 17311     1 
17311 17312     1 
17311 17313     1 
17311 17314     1 
17314 17315     1 
17314 17316     1 
17314 17322     1 
17316 17317     1 
17317 17318     1 
17317 17319     1 
17319 17320     1 
17319 17321     1 
17319 17331     1 
17322 17323     1 
17322 17324     1 
17322 17325     1 
17325 17326     1 
17326 17327     1 
17326 17328     1 
17328 17329     1 
17328 17330     1 
17328 17378     1 
17331 17332     1 
17331 17333     1 
17331 17334     1 
17334 17335     1 
17334 17336     1 
17334 17337     1 
17337 17338     1 
17337 17339     1 
17337 17340     1 
17340 17341     1 
17340 17342     1 
17340 17343     1 
17343 17344     1 
17343 17345     1 
17343 17346     1 
17346 17347     1 
17346 17348     1 
17346 17349     1 
17349 17350     1 
17349 17351     1 
17351 17352     1 
17351 17353     1 
17353 17354     1 
17353 17355     1 
17353 17356     1 
17356 17357     1 
17356 17358     1 
17356 17359     1 
17359 17360     1 
17359 17361     1 
17359 17362     1 
17362 17363     1 
17362 17364     1 
17362 17365     1 
17365 17366     1 
17365 17367     1 
17365 17368     1 
17368 17369     1 
17368 17370     1 
17368 17371     1 
17371 17372     1 
17371 17373     1 
17371 17374     1 
17374 17375     1 
17374 17376     1 
17374 17377     1 
17378 17379     1 
17378 17380     1 
17378 17381     1 
17381 17382     1 
17381 17383     1 
17381 17384     1 
17384 17385     1 
17384 17386     1 
17384 17387     1 
17387 17388     1 
17387 17389     1 
17387 17390     1 
17390 17391     1 
17390 17392     1 
17390 17393     1 
17393 17394     1 
17393 17395     1 
17393 17396     1 
17396 17397     1 
17396 17398     1 
17396 17399     1 
17399 17400     1 
17399 17401     1 
17399 17402     1 
17402 17403     1 
17402 17404     1 
17402 17405     1 
17405 17406     1 
17405 17407     1 
17405 17408     1 
17408 17409     1 
17408 17410     1 
17408 17411     1 
17411 17412     1 
17411 17413     1 
17411 17414     1 
17414 17415     1 
17414 17416     1 
17414 17417     1 
17417 17418     1 
17417 17419     1 
17417 17420     1 
17421 17422     1 
17421 17425     1 
17421 17429     1 
17421 17433     1 
17422 17423     1 
17422 17424     1 
17422 17437     1 
17425 17426     1 
17425 17427     1 
17425 17428     1 
17429 17430     1 
17429 17431     1 
17429 17432     1 
17433 17434     1 
17433 17435     1 
17433 17436     1 
17437 17438     1 
17437 17439     1 
17437 17443     1 
17440 17441     1 
17440 17442     1 
17440 17443     1 
17440 17444     1 
17444 17445     1 
17445 17446     1 
17445 17447     1 
17445 17448     1 
17448 17449     1 
17448 17450     1 
17448 17456     1 
17450 17451     1 
17451 17452     1 
17451 17453     1 
17453 17454     1 
17453 17455     1 
17453 17465     1 
17456 17457     1 
17456 17458     1 
17456 17459     1 
17459 17460     1 
17460 17461     1 
17460 17462     1 
17462 17463     1 
17462 17464     1 
17462 17512     1 
17465 17466     1 
17465 17467     1 
17465 17468     1 
17468 17469     1 
17468 17470     1 
17468 17471     1 
17471 17472     1 
17471 17473     1 
17471 17474     1 
17474 17475     1 
17474 17476     1 
17474 17477     1 
17477 17478     1 
17477 17479     1 
17477 17480     1 
17480 17481     1 
17480 17482     1 
17480 17483     1 
17483 17484     1 
17483 17485     1 
17485 17486     1 
17485 17487     1 
17487 17488     1 
17487 17489     1 
17487 17490     1 
17490 17491     1 
17490 17492     1 
17490 17493     1 
17493 17494     1 
17493 17495     1 
17493 17496     1 
17496 17497     1 
17496 17498     1 
17496 17499     1 
17499 17500     1 
17499 17501     1 
17499 17502     1 
17502 17503     1 
17502 17504     1 
17502 17505     1 
17505 17506     1 
17505 17507     1 
17505 17508     1 
17508 17509     1 
17508 17510     1 
17508 17511     1 
17512 17513     1 
17512 17514     1 
17512 17515     1 
17515 17516     1 
17515 17517     1 
17515 17518     1 
17518 17519     1 
17518 17520     1 
17518 17521     1 
17521 17522     1 
17521 17523     1 
17521 17524     1 
17524 17525     1 
17524 17526     1 
17524 17527     1 
17527 17528     1 
17527 17529     1 
17527 17530     1 
17530 17531     1 
17530 17532     1 
17530 17533     1 
17533 17534     1 
17533 17535     1 
17533 17536     1 
17536 17537     1 
17536 17538     1 
17536 17539     1 
17539 17540     1 
17539 17541     1 
17539 17542     1 
17542 17543     1 
17542 17544     1 
17542 17545     1 
17545 17546     1 
17545 17547     1 
17545 17548     1 
17548 17549     1 
17548 17550     1 
17548 17551     1 
17551 17552     1 
17551 17553     1 
17551 17554     1 
17555 17556     1 
17555 17559     1 
17555 17563     1 
17555 17567     1 
17556 17557     1 
17556 17558     1 
17556 17571     1 
17559 17560     1 
17559 17561     1 
17559 17562     1 
17563 17564     1 
17563 17565     1 
17563 17566     1 
17567 17568     1 
17567 17569     1 
17567 17570     1 
17571 17572     1 
17571 17573     1 
17571 17577     1 
17574 17575     1 
17574 17576     1 
17574 17577     1 
17574 17578     1 
17578 17579     1 
17579 17580     1 
17579 17581     1 
17579 17582     1 
17582 17583     1 
17582 17584     1 
17582 17590     1 
17584 17585     1 
17585 17586     1 
17585 17587     1 
17587 17588     1 
17587 17589     1 
17587 17599     1 
17590 17591     1 
17590 17592     1 
17590 17593     1 
17593 17594     1 
17594 17595     1 
17594 17596     1 
17596 17597     1 
17596 17598     1 
17596 17646     1 
17599 17600     1 
17599 17601     1 
17599 17602     1 
17602 17603     1 
17602 17604     1 
17602 17605     1 
17605 17606     1 
17605 17607     1 
17605 17608     1 
17608 17609     1 
17608 17610     1 
17608 17611     1 
17611 17612     1 
17611 17613     1 
17611 17614     1 
17614 17615     1 
17614 17616     1 
17614 17617     1 
17617 17618     1 
17617 17619     1 
17619 17620     1 
17619 17621     1 
17621 17622     1 
17621 17623     1 
17621 17624     1 
17624 17625     1 
17624 17626     1 
17624 17627     1 
17627 17628     1 
17627 17629     1 
17627 17630     1 
17630 17631     1 
17630 17632     1 
17630 17633     1 
17633 17634     1 
17633 17635     1 
17633 17636     1 
17636 17637     1 
17636 17638     1 
17636 17639     1 
17639 17640     1 
17639 17641     1 
17639 17642     1 
17642 17643     1 
17642 17644     1 
17642 17645     1 
17646 17647     1 
17646 17648     1 
17646 17649     1 
17649 17650     1 
17649 17651     1 
17649 17652     1 
17652 17653     1 
17652 17654     1 
17652 17655     1 
17655 17656     1 
17655 17657     1 
17655 17658     1 
17658 17659     1 
17658 17660     1 
17658 17661     1 
17661 17662     1 
17661 17663     1 
17661 17664     1 
17664 17665     1 
17664 17666     1 
17664 17667     1 
17667 17668     1 
17667 17669     1 
17667 17670     1 
17670 17671     1 
17670 17672     1 
17670 17673     1 
17673 17674     1 
17673 17675     1 
17673 17676     1 
17676 17677     1 
17676 17678     1 
17676 17679     1 
17679 17680     1 
17679 17681     1 
17679 17682     1 
17682 17683     1 
17682 17684     1 
17682 17685     1 
17685 17686     1 
17685 17687     1 
17685 17688     1 
17689 17690     1 
17689 17693     1 
17689 17697     1 
17689 17701     1 
17690 17691     1 
17690 17692     1 
17690 17705     1 
17693 17694     1 
17693 17695     1 
17693 17696     1 
17697 17698     1 
17697 17699     1 
17697 17700     1 
17701 17702     1 
17701 17703     1 
17701 17704     1 
17705 17706     1 
17705 17707     1 
17705 17711     1 
17708 17709     1 
17708 17710     1 
17708 17711     1 
17708 17712     1 
17712 17713     1 
17713 17714     1 
17713 17715     1 
17713 17716     1 
17716 17717     1 
17716 17718     1 
17716 17724     1 
17718 17719     1 
17719 17720     1 
17719 17721     1 
17721 17722     1 
17721 17723     1 
17721 17733     1 
17724 17725     1 
17724 17726     1 
17724 17727     1 
17727 17728     1 
17728 17729     1 
17728 17730     1 
17730 17731     1 
17730 17732     1 
17730 17780     1 
17733 17734     1 
17733 17735     1 
17733 17736     1 
17736 17737     1 
17736 17738     1 
17736 17739     1 
17739 17740     1 
17739 17741     1 
17739 17742     1 
17742 17743     1 
17742 17744     1 
17742 17745     1 
17745 17746     1 
17745 17747     1 
17745 17748     1 
17748 17749     1 
17748 17750     1 
17748 17751     1 
17751 17752     1 
17751 17753     1 
17753 17754     1 
17753 17755     1 
17755 17756     1 
17755 17757     1 
17755 17758     1 
17758 17759     1 
17758 17760     1 
17758 17761     1 
17761 17762     1 
17761 17763     1 
17761 17764     1 
17764 17765     1 
17764 17766     1 
17764 17767     1 
17767 17768     1 
17767 17769     1 
17767 17770     1 
17770 17771     1 
17770 17772     1 
17770 17773     1 
17773 17774     1 
17773 17775     1 
17773 17776     1 
17776 17777     1 
17776 17778     1 
17776 17779     1 
17780 17781     1 
17780 17782     1 
17780 17783     1 
17783 17784     1 
17783 17785     1 
17783 17786     1 
17786 17787     1 
17786 17788     1 
17786 17789     1 
17789 17790     1 
17789 17791     1 
17789 17792     1 
17792 17793     1 
17792 17794     1 
17792 17795     1 
17795 17796     1 
17795 17797     1 
17795 17798     1 
17798 17799     1 
17798 17800     1 
17798 17801     1 
17801 17802     1 
17801 17803     1 
17801 17804     1 
17804 17805     1 
17804 17806     1 
17804 17807     1 
17807 17808     1 
17807 17809     1 
17807 17810     1 
17810 17811     1 
17810 17812     1 
17810 17813     1 
17813 17814     1 
17813 17815     1 
17813 17816     1 
17816 17817     1 
17816 17818     1 
17816 17819     1 
17819 17820     1 
17819 17821     1 
17819 17822     1 
17823 17824     1 
17823 17827     1 
17823 17831     1 
17823 17835     1 
17824 17825     1 
17824 17826     1 
17824 17839     1 
17827 17828     1 
17827 17829     1 
17827 17830     1 
17831 17832     1 
17831 17833     1 
17831 17834     1 
17835 17836     1 
17835 17837     1 
17835 17838     1 
17839 17840     1 
17839 17841     1 
17839 17845     1 
17842 17843     1 
17842 17844     1 
17842 17845     1 
17842 17846     1 
17846 17847     1 
17847 17848     1 
17847 17849     1 
17847 17850     1 
17850 17851     1 
17850 17852     1 
17850 17858     1 
17852 17853     1 
17853 17854     1 
17853 17855     1 
17855 17856     1 
17855 17857     1 
17855 17867     1 
17858 17859     1 
17858 17860     1 
17858 17861     1 
17861 17862     1 
17862 17863     1 
17862 17864     1 
17864 17865     1 
17864 17866     1 
17864 17914     1 
17867 17868     1 
17867 17869     1 
17867 17870     1 
17870 17871     1 
17870 17872     1 
17870 17873     1 
17873 17874     1 
17873 17875     1 
17873 17876     1 
17876 17877     1 
17876 17878     1 
17876 17879     1 
17879 17880     1 
17879 17881     1 
17879 17882     1 
17882 17883     1 
17882 17884     1 
17882 17885     1 
17885 17886     1 
17885 17887     1 
17887 17888     1 
17887 17889     1 
17889 17890     1 
17889 17891     1 
17889 17892     1 
17892 17893     1 
17892 17894     1 
17892 17895     1 
17895 17896     1 
17895 17897     1 
17895 17898     1 
17898 17899     1 
17898 17900     1 
17898 17901     1 
17901 17902     1 
17901 17903     1 
17901 17904     1 
17904 17905     1 
17904 17906     1 
17904 17907     1 
17907 17908     1 
17907 17909     1 
17907 17910     1 
17910 17911     1 
17910 17912     1 
17910 17913     1 
17914 17915     1 
17914 17916     1 
17914 17917     1 
17917 17918     1 
17917 17919     1 
17917 17920     1 
17920 17921     1 
17920 17922     1 
17920 17923     1 
17923 17924     1 
17923 17925     1 
17923 17926     1 
17926 17927     1 
17926 17928     1 
17926 17929     1 
17929 17930     1 
17929 17931     1 
17929 17932     1 
17932 17933     1 
17932 17934     1 
17932 17935     1 
17935 17936     1 
17935 17937     1 
17935 17938     1 
17938 17939     1 
17938 17940     1 
17938 17941     1 
17941 17942     1 
17941 17943     1 
17941 17944     1 
17944 17945     1 
17944 17946     1 
17944 17947     1 
17947 17948     1 
17947 17949     1 
17947 17950     1 
17950 17951     1 
17950 17952     1 
17950 17953     1 
17953 17954     1 
17953 17955     1 
17953 17956     1 
17957 17958     1 
17957 17961     1 
17957 17965     1 
17957 17969     1 
17958 17959     1 
17958 17960     1 
17958 17973     1 
17961 17962     1 
17961 17963     1 
17961 17964     1 
17965 17966     1 
17965 17967     1 
17965 17968     1 
17969 17970     1 
17969 17971     1 
17969 17972     1 
17973 17974     1 
17973 17975     1 
17973 17979     1 
17976 17977     1 
17976 17978     1 
17976 17979     1 
17976 17980     1 
17980 17981     1 
17981 17982     1 
17981 17983     1 
17981 17984     1 
17984 17985     1 
17984 17986     1 
17984 17992     1 
17986 17987     1 
17987 17988     1 
17987 17989     1 
17989 17990     1 
17989 17991     1 
17989 18001     1 
17992 17993     1 
17992 17994     1 
17992 17995     1 
17995 17996     1 
17996 17997     1 
17996 17998     1 
17998 17999     1 
17998 18000     1 
17998 18048     1 
18001 18002     1 
18001 18003     1 
18001 18004     1 
18004 18005     1 
18004 18006     1 
18004 18007     1 
18007 18008     1 
18007 18009     1 
18007 18010     1 
18010 18011     1 
18010 18012     1 
18010 18013     1 
18013 18014     1 
18013 18015     1 
18013 18016     1 
18016 18017     1 
18016 18018     1 
18016 18019     1 
18019 18020     1 
18019 18021     1 
18021 18022     1 
18021 18023     1 
18023 18024     1 
18023 18025     1 
18023 18026     1 
18026 18027     1 
18026 18028     1 
18026 18029     1 
18029 18030     1 
18029 18031     1 
18029 18032     1 
18032 18033     1 
18032 18034     1 
18032 18035     1 
18035 18036     1 
18035 18037     1 
18035 18038     1 
18038 18039     1 
18038 18040     1 
18038 18041     1 
18041 18042     1 
18041 18043     1 
18041 18044     1 
18044 18045     1 
18044 18046     1 
18044 18047     1 
18048 18049     1 
18048 18050     1 
18048 18051     1 
18051 18052     1 
18051 18053     1 
18051 18054     1 
18054 18055     1 
18054 18056     1 
18054 18057     1 
18057 18058     1 
18057 18059     1 
18057 18060     1 
18060 18061     1 
18060 18062     1 
18060 18063     1 
18063 18064     1 
18063 18065     1 
18063 18066     1 
18066 18067     1 
18066 18068     1 
18066 18069     1 
18069 18070     1 
18069 18071     1 
18069 18072     1 
18072 18073     1 
18072 18074     1 
18072 18075     1 
18075 18076     1 
18075 18077     1 
18075 18078     1 
18078 18079     1 
18078 18080     1 
18078 18081     1 
18081 18082     1 
18081 18083     1 
18081 18084     1 
18084 18085     1 
18084 18086     1 
18084 18087     1 
18087 18088     1 
18087 18089     1 
18087 18090     1 
18091 18092     1 
18091 18095     1 
18091 18099     1 
18091 18103     1 
18092 18093     1 
18092 18094     1 
18092 18107     1 
18095 18096     1 
18095 18097     1 
18095 18098     1 
18099 18100     1 
18099 18101     1 
18099 18102     1 
18103 18104     1 
18103 18105     1 
18103 18106     1 
18107 18108     1 
18107 18109     1 
18107 18113     1 
18110 18111     1 
18110 18112     1 
18110 18113     1 
18110 18114     1 
18114 18115     1 
18115 18116     1 
18115 18117     1 
18115 18118     1 
18118 18119     1 
18118 18120     1 
18118 18126     1 
18120 18121     1 
18121 18122     1 
18121 18123     1 
18123 18124     1 
18123 18125     1 
18123 18135     1 
18126 18127     1 
18126 18128     1 
18126 18129     1 
18129 18130     1 
18130 18131     1 
18130 18132     1 
18132 18133     1 
18132 18134     1 
18132 18182     1 
18135 18136     1 
18135 18137     1 
18135 18138     1 
18138 18139     1 
18138 18140     1 
18138 18141     1 
18141 18142     1 
18141 18143     1 
18141 18144     1 
18144 18145     1 
18144 18146     1 
18144 18147     1 
18147 18148     1 
18147 18149     1 
18147 18150     1 
18150 18151     1 
18150 18152     1 
18150 18153     1 
18153 18154     1 
18153 18155     1 
18155 18156     1 
18155 18157     1 
18157 18158     1 
18157 18159     1 
18157 18160     1 
18160 18161     1 
18160 18162     1 
18160 18163     1 
18163 18164     1 
18163 18165     1 
18163 18166     1 
18166 18167     1 
18166 18168     1 
18166 18169     1 
18169 18170     1 
18169 18171     1 
18169 18172     1 
18172 18173     1 
18172 18174     1 
18172 18175     1 
18175 18176     1 
18175 18177     1 
18175 18178     1 
18178 18179     1 
18178 18180     1 
18178 18181     1 
18182 18183     1 
18182 18184     1 
18182 18185     1 
18185 18186     1 
18185 18187     1 
18185 18188     1 
18188 18189     1 
18188 18190     1 
18188 18191     1 
18191 18192     1 
18191 18193     1 
18191 18194     1 
18194 18195     1 
18194 18196     1 
18194 18197     1 
18197 18198     1 
18197 18199     1 
18197 18200     1 
18200 18201     1 
18200 18202     1 
18200 18203     1 
18203 18204     1 
18203 18205     1 
18203 18206     1 
18206 18207     1 
18206 18208     1 
18206 18209     1 
18209 18210     1 
18209 18211     1 
18209 18212     1 
18212 18213     1 
18212 18214     1 
18212 18215     1 
18215 18216     1 
18215 18217     1 
18215 18218     1 
18218 18219     1 
18218 18220     1 
18218 18221     1 
18221 18222     1 
18221 18223     1 
18221 18224     1 
18225 18226     1 
18225 18229     1 
18225 18233     1 
18225 18237     1 
18226 18227     1 
18226 18228     1 
18226 18241     1 
18229 18230     1 
18229 18231     1 
18229 18232     1 
18233 18234     1 
18233 18235     1 
18233 18236     1 
18237 18238     1 
18237 18239     1 
18237 18240     1 
18241 18242     1 
18241 18243     1 
18241 18247     1 
18244 18245     1 
18244 18246     1 
18244 18247     1 
18244 18248     1 
18248 18249     1 
18249 18250     1 
18249 18251     1 
18249 18252     1 
18252 18253     1 
18252 18254     1 
18252 18260     1 
18254 18255     1 
18255 18256     1 
18255 18257     1 
18257 18258     1 
18257 18259     1 
18257 18269     1 
18260 18261     1 
18260 18262     1 
18260 18263     1 
18263 18264     1 
18264 18265     1 
18264 18266     1 
18266 18267     1 
18266 18268     1 
18266 18316     1 
18269 18270     1 
18269 18271     1 
18269 18272     1 
18272 18273     1 
18272 18274     1 
18272 18275     1 
18275 18276     1 
18275 18277     1 
18275 18278     1 
18278 18279     1 
18278 18280     1 
18278 18281     1 
18281 18282     1 
18281 18283     1 
18281 18284     1 
18284 18285     1 
18284 18286     1 
18284 18287     1 
18287 18288     1 
18287 18289     1 
18289 18290     1 
18289 18291     1 
18291 18292     1 
18291 18293     1 
18291 18294     1 
18294 18295     1 
18294 18296     1 
18294 18297     1 
18297 18298     1 
18297 18299     1 
18297 18300     1 
18300 18301     1 
18300 18302     1 
18300 18303     1 
18303 18304     1 
18303 18305     1 
18303 18306     1 
18306 18307     1 
18306 18308     1 
18306 18309     1 
18309 18310     1 
18309 18311     1 
18309 18312     1 
18312 18313     1 
18312 18314     1 
18312 18315     1 
18316 18317     1 
18316 18318     1 
18316 18319     1 
18319 18320     1 
18319 18321     1 
18319 18322     1 
18322 18323     1 
18322 18324     1 
18322 18325     1 
18325 18326     1 
18325 18327     1 
18325 18328     1 
18328 18329     1 
18328 18330     1 
18328 18331     1 
18331 18332     1 
18331 18333     1 
18331 18334     1 
18334 18335     1 
18334 18336     1 
18334 18337     1 
18337 18338     1 
18337 18339     1 
18337 18340     1 
18340 18341     1 
18340 18342     1 
18340 18343     1 
18343 18344     1 
18343 18345     1 
18343 18346     1 
18346 18347     1 
18346 18348     1 
18346 18349     1 
18349 18350     1 
18349 18351     1 
18349 18352     1 
18352 18353     1 
18352 18354     1 
18352 18355     1 
18355 18356     1 
18355 18357     1 
18355 18358     1 
18359 18360     1 
18359 18363     1 
18359 18367     1 
18359 18371     1 
18360 18361     1 
18360 18362     1 
18360 18375     1 
18363 18364     1 
18363 18365     1 
18363 18366     1 
18367 18368     1 
18367 18369     1 
18367 18370     1 
18371 18372     1 
18371 18373     1 
18371 18374     1 
18375 18376     1 
18375 18377     1 
18375 18381     1 
18378 18379     1 
18378 18380     1 
18378 18381     1 
18378 18382     1 
18382 18383     1 
18383 18384     1 
18383 18385     1 
18383 18386     1 
18386 18387     1 
18386 18388     1 
18386 18394     1 
18388 18389     1 
18389 18390     1 
18389 18391     1 
18391 18392     1 
18391 18393     1 
18391 18403     1 
18394 18395     1 
18394 18396     1 
18394 18397     1 
18397 18398     1 
18398 18399     1 
18398 18400     1 
18400 18401     1 
18400 18402     1 
18400 18450     1 
18403 18404     1 
18403 18405     1 
18403 18406     1 
18406 18407     1 
18406 18408     1 
18406 18409     1 
18409 18410     1 
18409 18411     1 
18409 18412     1 
18412 18413     1 
18412 18414     1 
18412 18415     1 
18415 18416     1 
18415 18417     1 
18415 18418     1 
18418 18419     1 
18418 18420     1 
18418 18421     1 
18421 18422     1 
18421 18423     1 
18423 18424     1 
18423 18425     1 
18425 18426     1 
18425 18427     1 
18425 18428     1 
18428 18429     1 
18428 18430     1 
18428 18431     1 
18431 18432     1 
18431 18433     1 
18431 18434     1 
18434 18435     1 
18434 18436     1 
18434 18437     1 
18437 18438     1 
18437 18439     1 
18437 18440     1 
18440 18441     1 
18440 18442     1 
18440 18443     1 
18443 18444     1 
18443 18445     1 
18443 18446     1 
18446 18447     1 
18446 18448     1 
18446 18449     1 
18450 18451     1 
18450 18452     1 
18450 18453     1 
18453 18454     1 
18453 18455     1 
18453 18456     1 
18456 18457     1 
18456 18458     1 
18456 18459     1 
18459 18460     1 
18459 18461     1 
18459 18462     1 
18462 18463     1 
18462 18464     1 
18462 18465     1 
18465 18466     1 
18465 18467     1 
18465 18468     1 
18468 18469     1 
18468 18470     1 
18468 18471     1 
18471 18472     1 
18471 18473     1 
18471 18474     1 
18474 18475     1 
18474 18476     1 
18474 18477     1 
18477 18478     1 
18477 18479     1 
18477 18480     1 
18480 18481     1 
18480 18482     1 
18480 18483     1 
18483 18484     1 
18483 18485     1 
18483 18486     1 
18486 18487     1 
18486 18488     1 
18486 18489     1 
18489 18490     1 
18489 18491     1 
18489 18492     1 
18493 18494     1 
18493 18497     1 
18493 18501     1 
18493 18505     1 
18494 18495     1 
18494 18496     1 
18494 18509     1 
18497 18498     1 
18497 18499     1 
18497 18500     1 
18501 18502     1 
18501 18503     1 
18501 18504     1 
18505 18506     1 
18505 18507     1 
18505 18508     1 
18509 18510     1 
18509 18511     1 
18509 18515     1 
18512 18513     1 
18512 18514     1 
18512 18515     1 
18512 18516     1 
18516 18517     1 
18517 18518     1 
18517 18519     1 
18517 18520     1 
18520 18521     1 
18520 18522     1 
18520 18528     1 
18522 18523     1 
18523 18524     1 
18523 18525     1 
18525 18526     1 
18525 18527     1 
18525 18537     1 
18528 18529     1 
18528 18530     1 
18528 18531     1 
18531 18532     1 
18532 18533     1 
18532 18534     1 
18534 18535     1 
18534 18536     1 
18534 18584     1 
18537 18538     1 
18537 18539     1 
18537 18540     1 
18540 18541     1 
18540 18542     1 
18540 18543     1 
18543 18544     1 
18543 18545     1 
18543 18546     1 
18546 18547     1 
18546 18548     1 
18546 18549     1 
18549 18550     1 
18549 18551     1 
18549 18552     1 
18552 18553     1 
18552 18554     1 
18552 18555     1 
18555 18556     1 
18555 18557     1 
18557 18558     1 
18557 18559     1 
18559 18560     1 
18559 18561     1 
18559 18562     1 
18562 18563     1 
18562 18564     1 
18562 18565     1 
18565 18566     1 
18565 18567     1 
18565 18568     1 
18568 18569     1 
18568 18570     1 
18568 18571     1 
18571 18572     1 
18571 18573     1 
18571 18574     1 
18574 18575     1 
18574 18576     1 
18574 18577     1 
18577 18578     1 
18577 18579     1 
18577 18580     1 
18580 18581     1 
18580 18582     1 
18580 18583     1 
18584 18585     1 
18584 18586     1 
18584 18587     1 
18587 18588     1 
18587 18589     1 
18587 18590     1 
18590 18591     1 
18590 18592     1 
18590 18593     1 
18593 18594     1 
18593 18595     1 
18593 18596     1 
18596 18597     1 
18596 18598     1 
18596 18599     1 
18599 18600     1 
18599 18601     1 
18599 18602     1 
18602 18603     1 
18602 18604     1 
18602 18605     1 
18605 18606     1 
18605 18607     1 
18605 18608     1 
18608 18609     1 
18608 18610     1 
18608 18611     1 
18611 18612     1 
18611 18613     1 
18611 18614     1 
18614 18615     1 
18614 18616     1 
18614 18617     1 
18617 18618     1 
18617 18619     1 
18617 18620     1 
18620 18621     1 
18620 18622     1 
18620 18623     1 
18623 18624     1 
18623 18625     1 
18623 18626     1 
18627 18628     1 
18627 18631     1 
18627 18635     1 
18627 18639     1 
18628 18629     1 
18628 18630     1 
18628 18643     1 
18631 18632     1 
18631 18633     1 
18631 18634     1 
18635 18636     1 
18635 18637     1 
18635 18638     1 
18639 18640     1 
18639 18641     1 
18639 18642     1 
18643 18644     1 
18643 18645     1 
18643 18649     1 
18646 18647     1 
18646 18648     1 
18646 18649     1 
18646 18650     1 
18650 18651     1 
18651 18652     1 
18651 18653     1 
18651 18654     1 
18654 18655     1 
18654 18656     1 
18654 18662     1 
18656 18657     1 
18657 18658     1 
18657 18659     1 
18659 18660     1 
18659 18661     1 
18659 18671     1 
18662 18663     1 
18662 18664     1 
18662 18665     1 
18665 18666     1 
18666 18667     1 
18666 18668     1 
18668 18669     1 
18668 18670     1 
18668 18718     1 
18671 18672     1 
18671 18673     1 
18671 18674     1 
18674 18675     1 
18674 18676     1 
18674 18677     1 
18677 18678     1 
18677 18679     1 
18677 18680     1 
18680 18681     1 
18680 18682     1 
18680 18683     1 
18683 18684     1 
18683 18685     1 
18683 18686     1 
18686 18687     1 
18686 18688     1 
18686 18689     1 
18689 18690     1 
18689 18691     1 
18691 18692     1 
18691 18693     1 
18693 18694     1 
18693 18695     1 
18693 18696     1 
18696 18697     1 
18696 18698     1 
18696 18699     1 
18699 18700     1 
18699 18701     1 
18699 18702     1 
18702 18703     1 
18702 18704     1 
18702 18705     1 
18705 18706     1 
18705 18707     1 
18705 18708     1 
18708 18709     1 
18708 18710     1 
18708 18711     1 
18711 18712     1 
18711 18713     1 
18711 18714     1 
18714 18715     1 
18714 18716     1 
18714 18717     1 
18718 18719     1 
18718 18720     1 
18718 18721     1 
18721 18722     1 
18721 18723     1 
18721 18724     1 
18724 18725     1 
18724 18726     1 
18724 18727     1 
18727 18728     1 
18727 18729     1 
18727 18730     1 
18730 18731     1 
18730 18732     1 
18730 18733     1 
18733 18734     1 
18733 18735     1 
18733 18736     1 
18736 18737     1 
18736 18738     1 
18736 18739     1 
18739 18740     1 
18739 18741     1 
18739 18742     1 
18742 18743     1 
18742 18744     1 
18742 18745     1 
18745 18746     1 
18745 18747     1 
18745 18748     1 
18748 18749     1 
18748 18750     1 
18748 18751     1 
18751 18752     1 
18751 18753     1 
18751 18754     1 
18754 18755     1 
18754 18756     1 
18754 18757     1 
18757 18758     1 
18757 18759     1 
18757 18760     1 
18761 18762     1 
18761 18765     1 
18761 18769     1 
18761 18773     1 
18762 18763     1 
18762 18764     1 
18762 18777     1 
18765 18766     1 
18765 18767     1 
18765 18768     1 
18769 18770     1 
18769 18771     1 
18769 18772     1 
18773 18774     1 
18773 18775     1 
18773 18776     1 
18777 18778     1 
18777 18779     1 
18777 18783     1 
18780 18781     1 
18780 18782     1 
18780 18783     1 
18780 18784     1 
18784 18785     1 
18785 18786     1 
18785 18787     1 
18785 18788     1 
18788 18789     1 
18788 18790     1 
18788 18796     1 
18790 18791     1 
18791 18792     1 
18791 18793     1 
18793 18794     1 
18793 18795     1 
18793 18805     1 
18796 18797     1 
18796 18798     1 
18796 18799     1 
18799 18800     1 
18800 18801     1 
18800 18802     1 
18802 18803     1 
18802 18804     1 
18802 18852     1 
18805 18806     1 
18805 18807     1 
18805 18808     1 
18808 18809     1 
18808 18810     1 
18808 18811     1 
18811 18812     1 
18811 18813     1 
18811 18814     1 
18814 18815     1 
18814 18816     1 
18814 18817     1 
18817 18818     1 
18817 18819     1 
18817 18820     1 
18820 18821     1 
18820 18822     1 
18820 18823     1 
18823 18824     1 
18823 18825     1 
18825 18826     1 
18825 18827     1 
18827 18828     1 
18827 18829     1 
18827 18830     1 
18830 18831     1 
18830 18832     1 
18830 18833     1 
18833 18834     1 
18833 18835     1 
18833 18836     1 
18836 18837     1 
18836 18838     1 
18836 18839     1 
18839 18840     1 
18839 18841     1 
18839 18842     1 
18842 18843     1 
18842 18844     1 
18842 18845     1 
18845 18846     1 
18845 18847     1 
18845 18848     1 
18848 18849     1 
18848 18850     1 
18848 18851     1 
18852 18853     1 
18852 18854     1 
18852 18855     1 
18855 18856     1 
18855 18857     1 
18855 18858     1 
18858 18859     1 
18858 18860     1 
18858 18861     1 
18861 18862     1 
18861 18863     1 
18861 18864     1 
18864 18865     1 
18864 18866     1 
18864 18867     1 
18867 18868     1 
18867 18869     1 
18867 18870     1 
18870 18871     1 
18870 18872     1 
18870 18873     1 
18873 18874     1 
18873 18875     1 
18873 18876     1 
18876 18877     1 
18876 18878     1 
18876 18879     1 
18879 18880     1 
18879 18881     1 
18879 18882     1 
18882 18883     1 
18882 18884     1 
18882 18885     1 
18885 18886     1 
18885 18887     1 
18885 18888     1 
18888 18889     1 
18888 18890     1 
18888 18891     1 
18891 18892     1 
18891 18893     1 
18891 18894     1 
18895 18896     1 
18895 18899     1 
18895 18903     1 
18895 18907     1 
18896 18897     1 
18896 18898     1 
18896 18911     1 
18899 18900     1 
18899 18901     1 
18899 18902     1 
18903 18904     1 
18903 18905     1 
18903 18906     1 
18907 18908     1 
18907 18909     1 
18907 18910     1 
18911 18912     1 
18911 18913     1 
18911 18917     1 
18914 18915     1 
18914 18916     1 
18914 18917     1 
18914 18918     1 
18918 18919     1 
18919 18920     1 
18919 18921     1 
18919 18922     1 
18922 18923     1 
18922 18924     1 
18922 18930     1 
18924 18925     1 
18925 18926     1 
18925 18927     1 
18927 18928     1 
18927 18929     1 
18927 18939     1 
18930 18931     1 
18930 18932     1 
18930 18933     1 
18933 18934     1 
18934 18935     1 
18934 18936     1 
18936 18937     1 
18936 18938     1 
18936 18986     1 
18939 18940     1 
18939 18941     1 
18939 18942     1 
18942 18943     1 
18942 18944     1 
18942 18945     1 
18945 18946     1 
18945 18947     1 
18945 18948     1 
18948 18949     1 
18948 18950     1 
18948 18951     1 
18951 18952     1 
18951 18953     1 
18951 18954     1 
18954 18955     1 
18954 18956     1 
18954 18957     1 
18957 18958     1 
18957 18959     1 
18959 18960     1 
18959 18961     1 
18961 18962     1 
18961 18963     1 
18961 18964     1 
18964 18965     1 
18964 18966     1 
18964 18967     1 
18967 18968     1 
18967 18969     1 
18967 18970     1 
18970 18971     1 
18970 18972     1 
18970 18973     1 
18973 18974     1 
18973 18975     1 
18973 18976     1 
18976 18977     1 
18976 18978     1 
18976 18979     1 
18979 18980     1 
18979 18981     1 
18979 18982     1 
18982 18983     1 
18982 18984     1 
18982 18985     1 
18986 18987     1 
18986 18988     1 
18986 18989     1 
18989 18990     1 
18989 18991     1 
18989 18992     1 
18992 18993     1 
18992 18994     1 
18992 18995     1 
18995 18996     1 
18995 18997     1 
18995 18998     1 
18998 18999     1 
18998 19000     1 
18998 19001     1 
19001 19002     1 
19001 19003     1 
19001 19004     1 
19004 19005     1 
19004 19006     1 
19004 19007     1 
19007 19008     1 
19007 19009     1 
19007 19010     1 
19010 19011     1 
19010 19012     1 
19010 19013     1 
19013 19014     1 
19013 19015     1 
19013 19016     1 
19016 19017     1 
19016 19018     1 
19016 19019     1 
19019 19020     1 
19019 19021     1 
19019 19022     1 
19022 19023     1 
19022 19024     1 
19022 19025     1 
19025 19026     1 
19025 19027     1 
19025 19028     1 
19029 19030     1 
19029 19033     1 
19029 19037     1 
19029 19041     1 
19030 19031     1 
19030 19032     1 
19030 19045     1 
19033 19034     1 
19033 19035     1 
19033 19036     1 
19037 19038     1 
19037 19039     1 
19037 19040     1 
19041 19042     1 
19041 19043     1 
19041 19044     1 
19045 19046     1 
19045 19047     1 
19045 19051     1 
19048 19049     1 
19048 19050     1 
19048 19051     1 
19048 19052     1 
19052 19053     1 
19053 19054     1 
19053 19055     1 
19053 19056     1 
19056 19057     1 
19056 19058     1 
19056 19064     1 
19058 19059     1 
19059 19060     1 
19059 19061     1 
19061 19062     1 
19061 19063     1 
19061 19073     1 
19064 19065     1 
19064 19066     1 
19064 19067     1 
19067 19068     1 
19068 19069     1 
19068 19070     1 
19070 19071     1 
19070 19072     1 
19070 19120     1 
19073 19074     1 
19073 19075     1 
19073 19076     1 
19076 19077     1 
19076 19078     1 
19076 19079     1 
19079 19080     1 
19079 19081     1 
19079 19082     1 
19082 19083     1 
19082 19084     1 
19082 19085     1 
19085 19086     1 
19085 19087     1 
19085 19088     1 
19088 19089     1 
19088 19090     1 
19088 19091     1 
19091 19092     1 
19091 19093     1 
19093 19094     1 
19093 19095     1 
19095 19096     1 
19095 19097     1 
19095 19098     1 
19098 19099     1 
19098 19100     1 
19098 19101     1 
19101 19102     1 
19101 19103     1 
19101 19104     1 
19104 19105     1 
19104 19106     1 
19104 19107     1 
19107 19108     1 
19107 19109     1 
19107 19110     1 
19110 19111     1 
19110 19112     1 
19110 19113     1 
19113 19114     1 
19113 19115     1 
19113 19116     1 
19116 19117     1 
19116 19118     1 
19116 19119     1 
19120 19121     1 
19120 19122     1 
19120 19123     1 
19123 19124     1 
19123 19125     1 
19123 19126     1 
19126 19127     1 
19126 19128     1 
19126 19129     1 
19129 19130     1 
19129 19131     1 
19129 19132     1 
19132 19133     1 
19132 19134     1 
19132 19135     1 
19135 19136     1 
19135 19137     1 
19135 19138     1 
19138 19139     1 
19138 19140     1 
19138 19141     1 
19141 19142     1 
19141 19143     1 
19141 19144     1 
19144 19145     1 
19144 19146     1 
19144 19147     1 
19147 19148     1 
19147 19149     1 
19147 19150     1 
19150 19151     1 
19150 19152     1 
19150 19153     1 
19153 19154     1 
19153 19155     1 
19153 19156     1 
19156 19157     1 
19156 19158     1 
19156 19159     1 
19159 19160     1 
19159 19161     1 
19159 19162     1 
19163 19164     1 
19163 19167     1 
19163 19171     1 
19163 19175     1 
19164 19165     1 
19164 19166     1 
19164 19179     1 
19167 19168     1 
19167 19169     1 
19167 19170     1 
19171 19172     1 
19171 19173     1 
19171 19174     1 
19175 19176     1 
19175 19177     1 
19175 19178     1 
19179 19180     1 
19179 19181     1 
19179 19185     1 
19182 19183     1 
19182 19184     1 
19182 19185     1 
19182 19186     1 
19186 19187     1 
19187 19188     1 
19187 19189     1 
19187 19190     1 
19190 19191     1 
19190 19192     1 
19190 19198     1 
19192 19193     1 
19193 19194     1 
19193 19195     1 
19195 19196     1 
19195 19197     1 
19195 19207     1 
19198 19199     1 
19198 19200     1 
19198 19201     1 
19201 19202     1 
19202 19203     1 
19202 19204     1 
19204 19205     1 
19204 19206     1 
19204 19254     1 
19207 19208     1 
19207 19209     1 
19207 19210     1 
19210 19211     1 
19210 19212     1 
19210 19213     1 
19213 19214     1 
19213 19215     1 
19213 19216     1 
19216 19217     1 
19216 19218     1 
19216 19219     1 
19219 19220     1 
19219 19221     1 
19219 19222     1 
19222 19223     1 
19222 19224     1 
19222 19225     1 
19225 19226     1 
19225 19227     1 
19227 19228     1 
19227 19229     1 
19229 19230     1 
19229 19231     1 
19229 19232     1 
19232 19233     1 
19232 19234     1 
19232 19235     1 
19235 19236     1 
19235 19237     1 
19235 19238     1 
19238 19239     1 
19238 19240     1 
19238 19241     1 
19241 19242     1 
19241 19243     1 
19241 19244     1 
19244 19245     1 
19244 19246     1 
19244 19247     1 
19247 19248     1 
19247 19249     1 
19247 19250     1 
19250 19251     1 
19250 19252     1 
19250 19253     1 
19254 19255     1 
19254 19256     1 
19254 19257     1 
19257 19258     1 
19257 19259     1 
19257 19260     1 
19260 19261     1 
19260 19262     1 
19260 19263     1 
19263 19264     1 
19263 19265     1 
19263 19266     1 
19266 19267     1 
19266 19268     1 
19266 19269     1 
19269 19270     1 
19269 19271     1 
19269 19272     1 
19272 19273     1 
19272 19274     1 
19272 19275     1 
19275 19276     1 
19275 19277     1 
19275 19278     1 
19278 19279     1 
19278 19280     1 
19278 19281     1 
19281 19282     1 
19281 19283     1 
19281 19284     1 
19284 19285     1 
19284 19286     1 
19284 19287     1 
19287 19288     1 
19287 19289     1 
19287 19290     1 
19290 19291     1 
19290 19292     1 
19290 19293     1 
19293 19294     1 
19293 19295     1 
19293 19296     1 
19297 19298     1 
19297 19301     1 
19297 19305     1 
19297 19309     1 
19298 19299     1 
19298 19300     1 
19298 19313     1 
19301 19302     1 
19301 19303     1 
19301 19304     1 
19305 19306     1 
19305 19307     1 
19305 19308     1 
19309 19310     1 
19309 19311     1 
19309 19312     1 
19313 19314     1 
19313 19315     1 
19313 19319     1 
19316 19317     1 
19316 19318     1 
19316 19319     1 
19316 19320     1 
19320 19321     1 
19321 19322     1 
19321 19323     1 
19321 19324     1 
19324 19325     1 
19324 19326     1 
19324 19332     1 
19326 19327     1 
19327 19328     1 
19327 19329     1 
19329 19330     1 
19329 19331     1 
19329 19341     1 
19332 19333     1 
19332 19334     1 
19332 19335     1 
19335 19336     1 
19336 19337     1 
19336 19338     1 
19338 19339     1 
19338 19340     1 
19338 19388     1 
19341 19342     1 
19341 19343     1 
19341 19344     1 
19344 19345     1 
19344 19346     1 
19344 19347     1 
19347 19348     1 
19347 19349     1 
19347 19350     1 
19350 19351     1 
19350 19352     1 
19350 19353     1 
19353 19354     1 
19353 19355     1 
19353 19356     1 
19356 19357     1 
19356 19358     1 
19356 19359     1 
19359 19360     1 
19359 19361     1 
19361 19362     1 
19361 19363     1 
19363 19364     1 
19363 19365     1 
19363 19366     1 
19366 19367     1 
19366 19368     1 
19366 19369     1 
19369 19370     1 
19369 19371     1 
19369 19372     1 
19372 19373     1 
19372 19374     1 
19372 19375     1 
19375 19376     1 
19375 19377     1 
19375 19378     1 
19378 19379     1 
19378 19380     1 
19378 19381     1 
19381 19382     1 
19381 19383     1 
19381 19384     1 
19384 19385     1 
19384 19386     1 
19384 19387     1 
19388 19389     1 
19388 19390     1 
19388 19391     1 
19391 19392     1 
19391 19393     1 
19391 19394     1 
19394 19395     1 
19394 19396     1 
19394 19397     1 
19397 19398     1 
19397 19399     1 
19397 19400     1 
19400 19401     1 
19400 19402     1 
19400 19403     1 
19403 19404     1 
19403 19405     1 
19403 19406     1 
19406 19407     1 
19406 19408     1 
19406 19409     1 
19409 19410     1 
19409 19411     1 
19409 19412     1 
19412 19413     1 
19412 19414     1 
19412 19415     1 
19415 19416     1 
19415 19417     1 
19415 19418     1 
19418 19419     1 
19418 19420     1 
19418 19421     1 
19421 19422     1 
19421 19423     1 
19421 19424     1 
19424 19425     1 
19424 19426     1 
19424 19427     1 
19427 19428     1 
19427 19429     1 
19427 19430     1 
19431 19432     1 
19431 19435     1 
19431 19439     1 
19431 19443     1 
19432 19433     1 
19432 19434     1 
19432 19447     1 
19435 19436     1 
19435 19437     1 
19435 19438     1 
19439 19440     1 
19439 19441     1 
19439 19442     1 
19443 19444     1 
19443 19445     1 
19443 19446     1 
19447 19448     1 
19447 19449     1 
19447 19453     1 
19450 19451     1 
19450 19452     1 
19450 19453     1 
19450 19454     1 
19454 19455     1 
19455 19456     1 
19455 19457     1 
19455 19458     1 
19458 19459     1 
19458 19460     1 
19458 19466     1 
19460 19461     1 
19461 19462     1 
19461 19463     1 
19463 19464     1 
19463 19465     1 
19463 19475     1 
19466 19467     1 
19466 19468     1 
19466 19469     1 
19469 19470     1 
19470 19471     1 
19470 19472     1 
19472 19473     1 
19472 19474     1 
19472 19522     1 
19475 19476     1 
19475 19477     1 
19475 19478     1 
19478 19479     1 
19478 19480     1 
19478 19481     1 
19481 19482     1 
19481 19483     1 
19481 19484     1 
19484 19485     1 
19484 19486     1 
19484 19487     1 
19487 19488     1 
19487 19489     1 
19487 19490     1 
19490 19491     1 
19490 19492     1 
19490 19493     1 
19493 19494     1 
19493 19495     1 
19495 19496     1 
19495 19497     1 
19497 19498     1 
19497 19499     1 
19497 19500     1 
19500 19501     1 
19500 19502     1 
19500 19503     1 
19503 19504     1 
19503 19505     1 
19503 19506     1 
19506 19507     1 
19506 19508     1 
19506 19509     1 
19509 19510     1 
19509 19511     1 
19509 19512     1 
19512 19513     1 
19512 19514     1 
19512 19515     1 
19515 19516     1 
19515 19517     1 
19515 19518     1 
19518 19519     1 
19518 19520     1 
19518 19521     1 
19522 19523     1 
19522 19524     1 
19522 19525     1 
19525 19526     1 
19525 19527     1 
19525 19528     1 
19528 19529     1 
19528 19530     1 
19528 19531     1 
19531 19532     1 
19531 19533     1 
19531 19534     1 
19534 19535     1 
19534 19536     1 
19534 19537     1 
19537 19538     1 
19537 19539     1 
19537 19540     1 
19540 19541     1 
19540 19542     1 
19540 19543     1 
19543 19544     1 
19543 19545     1 
19543 19546     1 
19546 19547     1 
19546 19548     1 
19546 19549     1 
19549 19550     1 
19549 19551     1 
19549 19552     1 
19552 19553     1 
19552 19554     1 
19552 19555     1 
19555 19556     1 
19555 19557     1 
19555 19558     1 
19558 19559     1 
19558 19560     1 
19558 19561     1 
19561 19562     1 
19561 19563     1 
19561 19564     1 
19565 19566     1 
19565 19569     1 
19565 19573     1 
19565 19577     1 
19566 19567     1 
19566 19568     1 
19566 19581     1 
19569 19570     1 
19569 19571     1 
19569 19572     1 
19573 19574     1 
19573 19575     1 
19573 19576     1 
19577 19578     1 
19577 19579     1 
19577 19580     1 
19581 19582     1 
19581 19583     1 
19581 19587     1 
19584 19585     1 
19584 19586     1 
19584 19587     1 
19584 19588     1 
19588 19589     1 
19589 19590     1 
19589 19591     1 
19589 19592     1 
19592 19593     1 
19592 19594     1 
19592 19600     1 
19594 19595     1 
19595 19596     1 
19595 19597     1 
19597 19598     1 
19597 19599     1 
19597 19609     1 
19600 19601     1 
19600 19602     1 
19600 19603     1 
19603 19604     1 
19604 19605     1 
19604 19606     1 
19606 19607     1 
19606 19608     1 
19606 19656     1 
19609 19610     1 
19609 19611     1 
19609 19612     1 
19612 19613     1 
19612 19614     1 
19612 19615     1 
19615 19616     1 
19615 19617     1 
19615 19618     1 
19618 19619     1 
19618 19620     1 
19618 19621     1 
19621 19622     1 
19621 19623     1 
19621 19624     1 
19624 19625     1 
19624 19626     1 
19624 19627     1 
19627 19628     1 
19627 19629     1 
19629 19630     1 
19629 19631     1 
19631 19632     1 
19631 19633     1 
19631 19634     1 
19634 19635     1 
19634 19636     1 
19634 19637     1 
19637 19638     1 
19637 19639     1 
19637 19640     1 
19640 19641     1 
19640 19642     1 
19640 19643     1 
19643 19644     1 
19643 19645     1 
19643 19646     1 
19646 19647     1 
19646 19648     1 
19646 19649     1 
19649 19650     1 
19649 19651     1 
19649 19652     1 
19652 19653     1 
19652 19654     1 
19652 19655     1 
19656 19657     1 
19656 19658     1 
19656 19659     1 
19659 19660     1 
19659 19661     1 
19659 19662     1 
19662 19663     1 
19662 19664     1 
19662 19665     1 
19665 19666     1 
19665 19667     1 
19665 19668     1 
19668 19669     1 
19668 19670     1 
19668 19671     1 
19671 19672     1 
19671 19673     1 
19671 19674     1 
19674 19675     1 
19674 19676     1 
19674 19677     1 
19677 19678     1 
19677 19679     1 
19677 19680     1 
19680 19681     1 
19680 19682     1 
19680 19683     1 
19683 19684     1 
19683 19685     1 
19683 19686     1 
19686 19687     1 
19686 19688     1 
19686 19689     1 
19689 19690     1 
19689 19691     1 
19689 19692     1 
19692 19693     1 
19692 19694     1 
19692 19695     1 
19695 19696     1 
19695 19697     1 
19695 19698     1 
19699 19700     1 
19699 19703     1 
19699 19707     1 
19699 19711     1 
19700 19701     1 
19700 19702     1 
19700 19715     1 
19703 19704     1 
19703 19705     1 
19703 19706     1 
19707 19708     1 
19707 19709     1 
19707 19710     1 
19711 19712     1 
19711 19713     1 
19711 19714     1 
19715 19716     1 
19715 19717     1 
19715 19721     1 
19718 19719     1 
19718 19720     1 
19718 19721     1 
19718 19722     1 
19722 19723     1 
19723 19724     1 
19723 19725     1 
19723 19726     1 
19726 19727     1 
19726 19728     1 
19726 19734     1 
19728 19729     1 
19729 19730     1 
19729 19731     1 
19731 19732     1 
19731 19733     1 
19731 19743     1 
19734 19735     1 
19734 19736     1 
19734 19737     1 
19737 19738     1 
19738 19739     1 
19738 19740     1 
19740 19741     1 
19740 19742     1 
19740 19790     1 
19743 19744     1 
19743 19745     1 
19743 19746     1 
19746 19747     1 
19746 19748     1 
19746 19749     1 
19749 19750     1 
19749 19751     1 
19749 19752     1 
19752 19753     1 
19752 19754     1 
19752 19755     1 
19755 19756     1 
19755 19757     1 
19755 19758     1 
19758 19759     1 
19758 19760     1 
19758 19761     1 
19761 19762     1 
19761 19763     1 
19763 19764     1 
19763 19765     1 
19765 19766     1 
19765 19767     1 
19765 19768     1 
19768 19769     1 
19768 19770     1 
19768 19771     1 
19771 19772     1 
19771 19773     1 
19771 19774     1 
19774 19775     1 
19774 19776     1 
19774 19777     1 
19777 19778     1 
19777 19779     1 
19777 19780     1 
19780 19781     1 
19780 19782     1 
19780 19783     1 
19783 19784     1 
19783 19785     1 
19783 19786     1 
19786 19787     1 
19786 19788     1 
19786 19789     1 
19790 19791     1 
19790 19792     1 
19790 19793     1 
19793 19794     1 
19793 19795     1 
19793 19796     1 
19796 19797     1 
19796 19798     1 
19796 19799     1 
19799 19800     1 
19799 19801     1 
19799 19802     1 
19802 19803     1 
19802 19804     1 
19802 19805     1 
19805 19806     1 
19805 19807     1 
19805 19808     1 
19808 19809     1 
19808 19810     1 
19808 19811     1 
19811 19812     1 
19811 19813     1 
19811 19814     1 
19814 19815     1 
19814 19816     1 
19814 19817     1 
19817 19818     1 
19817 19819     1 
19817 19820     1 
19820 19821     1 
19820 19822     1 
19820 19823     1 
19823 19824     1 
19823 19825     1 
19823 19826     1 
19826 19827     1 
19826 19828     1 
19826 19829     1 
19829 19830     1 
19829 19831     1 
19829 19832     1 
19833 19834     1 
19833 19837     1 
19833 19841     1 
19833 19845     1 
19834 19835     1 
19834 19836     1 
19834 19849     1 
19837 19838     1 
19837 19839     1 
19837 19840     1 
19841 19842     1 
19841 19843     1 
19841 19844     1 
19845 19846     1 
19845 19847     1 
19845 19848     1 
19849 19850     1 
19849 19851     1 
19849 19855     1 
19852 19853     1 
19852 19854     1 
19852 19855     1 
19852 19856     1 
19856 19857     1 
19857 19858     1 
19857 19859     1 
19857 19860     1 
19860 19861     1 
19860 19862     1 
19860 19868     1 
19862 19863     1 
19863 19864     1 
19863 19865     1 
19865 19866     1 
19865 19867     1 
19865 19877     1 
19868 19869     1 
19868 19870     1 
19868 19871     1 
19871 19872     1 
19872 19873     1 
19872 19874     1 
19874 19875     1 
19874 19876     1 
19874 19924     1 
19877 19878     1 
19877 19879     1 
19877 19880     1 
19880 19881     1 
19880 19882     1 
19880 19883     1 
19883 19884     1 
19883 19885     1 
19883 19886     1 
19886 19887     1 
19886 19888     1 
19886 19889     1 
19889 19890     1 
19889 19891     1 
19889 19892     1 
19892 19893     1 
19892 19894     1 
19892 19895     1 
19895 19896     1 
19895 19897     1 
19897 19898     1 
19897 19899     1 
19899 19900     1 
19899 19901     1 
19899 19902     1 
19902 19903     1 
19902 19904     1 
19902 19905     1 
19905 19906     1 
19905 19907     1 
19905 19908     1 
19908 19909     1 
19908 19910     1 
19908 19911     1 
19911 19912     1 
19911 19913     1 
19911 19914     1 
19914 19915     1 
19914 19916     1 
19914 19917     1 
19917 19918     1 
19917 19919     1 
19917 19920     1 
19920 19921     1 
19920 19922     1 
19920 19923     1 
19924 19925     1 
19924 19926     1 
19924 19927     1 
19927 19928     1 
19927 19929     1 
19927 19930     1 
19930 19931     1 
19930 19932     1 
19930 19933     1 
19933 19934     1 
19933 19935     1 
19933 19936     1 
19936 19937     1 
19936 19938     1 
19936 19939     1 
19939 19940     1 
19939 19941     1 
19939 19942     1 
19942 19943     1 
19942 19944     1 
19942 19945     1 
19945 19946     1 
19945 19947     1 
19945 19948     1 
19948 19949     1 
19948 19950     1 
19948 19951     1 
19951 19952     1 
19951 19953     1 
19951 19954     1 
19954 19955     1 
19954 19956     1 
19954 19957     1 
19957 19958     1 
19957 19959     1 
19957 19960     1 
19960 19961     1 
19960 19962     1 
19960 19963     1 
19963 19964     1 
19963 19965     1 
19963 19966     1 
19967 19968     1 
19967 19971     1 
19967 19975     1 
19967 19979     1 
19968 19969     1 
19968 19970     1 
19968 19983     1 
19971 19972     1 
19971 19973     1 
19971 19974     1 
19975 19976     1 
19975 19977     1 
19975 19978     1 
19979 19980     1 
19979 19981     1 
19979 19982     1 
19983 19984     1 
19983 19985     1 
19983 19989     1 
19986 19987     1 
19986 19988     1 
19986 19989     1 
19986 19990     1 
19990 19991     1 
19991 19992     1 
19991 19993     1 
19991 19994     1 
19994 19995     1 
19994 19996     1 
19994 20002     1 
19996 19997     1 
19997 19998     1 
19997 19999     1 
19999 20000     1 
19999 20001     1 
19999 20011     1 
20002 20003     1 
20002 20004     1 
20002 20005     1 
20005 20006     1 
20006 20007     1 
20006 20008     1 
20008 20009     1 
20008 20010     1 
20008 20058     1 
20011 20012     1 
20011 20013     1 
20011 20014     1 
20014 20015     1 
20014 20016     1 
20014 20017     1 
20017 20018     1 
20017 20019     1 
20017 20020     1 
20020 20021     1 
20020 20022     1 
20020 20023     1 
20023 20024     1 
20023 20025     1 
20023 20026     1 
20026 20027     1 
20026 20028     1 
20026 20029     1 
20029 20030     1 
20029 20031     1 
20031 20032     1 
20031 20033     1 
20033 20034     1 
20033 20035     1 
20033 20036     1 
20036 20037     1 
20036 20038     1 
20036 20039     1 
20039 20040     1 
20039 20041     1 
20039 20042     1 
20042 20043     1 
20042 20044     1 
20042 20045     1 
20045 20046     1 
20045 20047     1 
20045 20048     1 
20048 20049     1 
20048 20050     1 
20048 20051     1 
20051 20052     1 
20051 20053     1 
20051 20054     1 
20054 20055     1 
20054 20056     1 
20054 20057     1 
20058 20059     1 
20058 20060     1 
20058 20061     1 
20061 20062     1 
20061 20063     1 
20061 20064     1 
20064 20065     1 
20064 20066     1 
20064 20067     1 
20067 20068     1 
20067 20069     1 
20067 20070     1 
20070 20071     1 
20070 20072     1 
20070 20073     1 
20073 20074     1 
20073 20075     1 
20073 20076     1 
20076 20077     1 
20076 20078     1 
20076 20079     1 
20079 20080     1 
20079 20081     1 
20079 20082     1 
20082 20083     1 
20082 20084     1 
20082 20085     1 
20085 20086     1 
20085 20087     1 
20085 20088     1 
20088 20089     1 
20088 20090     1 
20088 20091     1 
20091 20092     1 
20091 20093     1 
20091 20094     1 
20094 20095     1 
20094 20096     1 
20094 20097     1 
20097 20098     1 
20097 20099     1 
20097 20100     1 
20101 20102     1 
20101 20105     1 
20101 20109     1 
20101 20113     1 
20102 20103     1 
20102 20104     1 
20102 20117     1 
20105 20106     1 
20105 20107     1 
20105 20108     1 
20109 20110     1 
20109 20111     1 
20109 20112     1 
20113 20114     1 
20113 20115     1 
20113 20116     1 
20117 20118     1 
20117 20119     1 
20117 20123     1 
20120 20121     1 
20120 20122     1 
20120 20123     1 
20120 20124     1 
20124 20125     1 
20125 20126     1 
20125 20127     1 
20125 20128     1 
20128 20129     1 
20128 20130     1 
20128 20136     1 
20130 20131     1 
20131 20132     1 
20131 20133     1 
20133 20134     1 
20133 20135     1 
20133 20145     1 
20136 20137     1 
20136 20138     1 
20136 20139     1 
20139 20140     1 
20140 20141     1 
20140 20142     1 
20142 20143     1 
20142 20144     1 
20142 20192     1 
20145 20146     1 
20145 20147     1 
20145 20148     1 
20148 20149     1 
20148 20150     1 
20148 20151     1 
20151 20152     1 
20151 20153     1 
20151 20154     1 
20154 20155     1 
20154 20156     1 
20154 20157     1 
20157 20158     1 
20157 20159     1 
20157 20160     1 
20160 20161     1 
20160 20162     1 
20160 20163     1 
20163 20164     1 
20163 20165     1 
20165 20166     1 
20165 20167     1 
20167 20168     1 
20167 20169     1 
20167 20170     1 
20170 20171     1 
20170 20172     1 
20170 20173     1 
20173 20174     1 
20173 20175     1 
20173 20176     1 
20176 20177     1 
20176 20178     1 
20176 20179     1 
20179 20180     1 
20179 20181     1 
20179 20182     1 
20182 20183     1 
20182 20184     1 
20182 20185     1 
20185 20186     1 
20185 20187     1 
20185 20188     1 
20188 20189     1 
20188 20190     1 
20188 20191     1 
20192 20193     1 
20192 20194     1 
20192 20195     1 
20195 20196     1 
20195 20197     1 
20195 20198     1 
20198 20199     1 
20198 20200     1 
20198 20201     1 
20201 20202     1 
20201 20203     1 
20201 20204     1 
20204 20205     1 
20204 20206     1 
20204 20207     1 
20207 20208     1 
20207 20209     1 
20207 20210     1 
20210 20211     1 
20210 20212     1 
20210 20213     1 
20213 20214     1 
20213 20215     1 
20213 20216     1 
20216 20217     1 
20216 20218     1 
20216 20219     1 
20219 20220     1 
20219 20221     1 
20219 20222     1 
20222 20223     1 
20222 20224     1 
20222 20225     1 
20225 20226     1 
20225 20227     1 
20225 20228     1 
20228 20229     1 
20228 20230     1 
20228 20231     1 
20231 20232     1 
20231 20233     1 
20231 20234     1 
20235 20236     1 
20235 20239     1 
20235 20243     1 
20235 20247     1 
20236 20237     1 
20236 20238     1 
20236 20251     1 
20239 20240     1 
20239 20241     1 
20239 20242     1 
20243 20244     1 
20243 20245     1 
20243 20246     1 
20247 20248     1 
20247 20249     1 
20247 20250     1 
20251 20252     1 
20251 20253     1 
20251 20257     1 
20254 20255     1 
20254 20256     1 
20254 20257     1 
20254 20258     1 
20258 20259     1 
20259 20260     1 
20259 20261     1 
20259 20262     1 
20262 20263     1 
20262 20264     1 
20262 20270     1 
20264 20265     1 
20265 20266     1 
20265 20267     1 
20267 20268     1 
20267 20269     1 
20267 20279     1 
20270 20271     1 
20270 20272     1 
20270 20273     1 
20273 20274     1 
20274 20275     1 
20274 20276     1 
20276 20277     1 
20276 20278     1 
20276 20326     1 
20279 20280     1 
20279 20281     1 
20279 20282     1 
20282 20283     1 
20282 20284     1 
20282 20285     1 
20285 20286     1 
20285 20287     1 
20285 20288     1 
20288 20289     1 
20288 20290     1 
20288 20291     1 
20291 20292     1 
20291 20293     1 
20291 20294     1 
20294 20295     1 
20294 20296     1 
20294 20297     1 
20297 20298     1 
20297 20299     1 
20299 20300     1 
20299 20301     1 
20301 20302     1 
20301 20303     1 
20301 20304     1 
20304 20305     1 
20304 20306     1 
20304 20307     1 
20307 20308     1 
20307 20309     1 
20307 20310     1 
20310 20311     1 
20310 20312     1 
20310 20313     1 
20313 20314     1 
20313 20315     1 
20313 20316     1 
20316 20317     1 
20316 20318     1 
20316 20319     1 
20319 20320     1 
20319 20321     1 
20319 20322     1 
20322 20323     1 
20322 20324     1 
20322 20325     1 
20326 20327     1 
20326 20328     1 
20326 20329     1 
20329 20330     1 
20329 20331     1 
20329 20332     1 
20332 20333     1 
20332 20334     1 
20332 20335     1 
20335 20336     1 
20335 20337     1 
20335 20338     1 
20338 20339     1 
20338 20340     1 
20338 20341     1 
20341 20342     1 
20341 20343     1 
20341 20344     1 
20344 20345     1 
20344 20346     1 
20344 20347     1 
20347 20348     1 
20347 20349     1 
20347 20350     1 
20350 20351     1 
20350 20352     1 
20350 20353     1 
20353 20354     1 
20353 20355     1 
20353 20356     1 
20356 20357     1 
20356 20358     1 
20356 20359     1 
20359 20360     1 
20359 20361     1 
20359 20362     1 
20362 20363     1 
20362 20364     1 
20362 20365     1 
20365 20366     1 
20365 20367     1 
20365 20368     1 
20369 20370     1 
20369 20373     1 
20369 20377     1 
20369 20381     1 
20370 20371     1 
20370 20372     1 
20370 20385     1 
20373 20374     1 
20373 20375     1 
20373 20376     1 
20377 20378     1 
20377 20379     1 
20377 20380     1 
20381 20382     1 
20381 20383     1 
20381 20384     1 
20385 20386     1 
20385 20387     1 
20385 20391     1 
20388 20389     1 
20388 20390     1 
20388 20391     1 
20388 20392     1 
20392 20393     1 
20393 20394     1 
20393 20395     1 
20393 20396     1 
20396 20397     1 
20396 20398     1 
20396 20404     1 
20398 20399     1 
20399 20400     1 
20399 20401     1 
20401 20402     1 
20401 20403     1 
20401 20413     1 
20404 20405     1 
20404 20406     1 
20404 20407     1 
20407 20408     1 
20408 20409     1 
20408 20410     1 
20410 20411     1 
20410 20412     1 
20410 20460     1 
20413 20414     1 
20413 20415     1 
20413 20416     1 
20416 20417     1 
20416 20418     1 
20416 20419     1 
20419 20420     1 
20419 20421     1 
20419 20422     1 
20422 20423     1 
20422 20424     1 
20422 20425     1 
20425 20426     1 
20425 20427     1 
20425 20428     1 
20428 20429     1 
20428 20430     1 
20428 20431     1 
20431 20432     1 
20431 20433     1 
20433 20434     1 
20433 20435     1 
20435 20436     1 
20435 20437     1 
20435 20438     1 
20438 20439     1 
20438 20440     1 
20438 20441     1 
20441 20442     1 
20441 20443     1 
20441 20444     1 
20444 20445     1 
20444 20446     1 
20444 20447     1 
20447 20448     1 
20447 20449     1 
20447 20450     1 
20450 20451     1 
20450 20452     1 
20450 20453     1 
20453 20454     1 
20453 20455     1 
20453 20456     1 
20456 20457     1 
20456 20458     1 
20456 20459     1 
20460 20461     1 
20460 20462     1 
20460 20463     1 
20463 20464     1 
20463 20465     1 
20463 20466     1 
20466 20467     1 
20466 20468     1 
20466 20469     1 
20469 20470     1 
20469 20471     1 
20469 20472     1 
20472 20473     1 
20472 20474     1 
20472 20475     1 
20475 20476     1 
20475 20477     1 
20475 20478     1 
20478 20479     1 
20478 20480     1 
20478 20481     1 
20481 20482     1 
20481 20483     1 
20481 20484     1 
20484 20485     1 
20484 20486     1 
20484 20487     1 
20487 20488     1 
20487 20489     1 
20487 20490     1 
20490 20491     1 
20490 20492     1 
20490 20493     1 
20493 20494     1 
20493 20495     1 
20493 20496     1 
20496 20497     1 
20496 20498     1 
20496 20499     1 
20499 20500     1 
20499 20501     1 
20499 20502     1 
20503 20504     1 
20503 20507     1 
20503 20511     1 
20503 20515     1 
20504 20505     1 
20504 20506     1 
20504 20519     1 
20507 20508     1 
20507 20509     1 
20507 20510     1 
20511 20512     1 
20511 20513     1 
20511 20514     1 
20515 20516     1 
20515 20517     1 
20515 20518     1 
20519 20520     1 
20519 20521     1 
20519 20525     1 
20522 20523     1 
20522 20524     1 
20522 20525     1 
20522 20526     1 
20526 20527     1 
20527 20528     1 
20527 20529     1 
20527 20530     1 
20530 20531     1 
20530 20532     1 
20530 20538     1 
20532 20533     1 
20533 20534     1 
20533 20535     1 
20535 20536     1 
20535 20537     1 
20535 20547     1 
20538 20539     1 
20538 20540     1 
20538 20541     1 
20541 20542     1 
20542 20543     1 
20542 20544     1 
20544 20545     1 
20544 20546     1 
20544 20594     1 
20547 20548     1 
20547 20549     1 
20547 20550     1 
20550 20551     1 
20550 20552     1 
20550 20553     1 
20553 20554     1 
20553 20555     1 
20553 20556     1 
20556 20557     1 
20556 20558     1 
20556 20559     1 
20559 20560     1 
20559 20561     1 
20559 20562     1 
20562 20563     1 
20562 20564     1 
20562 20565     1 
20565 20566     1 
20565 20567     1 
20567 20568     1 
20567 20569     1 
20569 20570     1 
20569 20571     1 
20569 20572     1 
20572 20573     1 
20572 20574     1 
20572 20575     1 
20575 20576     1 
20575 20577     1 
20575 20578     1 
20578 20579     1 
20578 20580     1 
20578 20581     1 
20581 20582     1 
20581 20583     1 
20581 20584     1 
20584 20585     1 
20584 20586     1 
20584 20587     1 
20587 20588     1 
20587 20589     1 
20587 20590     1 
20590 20591     1 
20590 20592     1 
20590 20593     1 
20594 20595     1 
20594 20596     1 
20594 20597     1 
20597 20598     1 
20597 20599     1 
20597 20600     1 
20600 20601     1 
20600 20602     1 
20600 20603     1 
20603 20604     1 
20603 20605     1 
20603 20606     1 
20606 20607     1 
20606 20608     1 
20606 20609     1 
20609 20610     1 
20609 20611     1 
20609 20612     1 
20612 20613     1 
20612 20614     1 
20612 20615     1 
20615 20616     1 
20615 20617     1 
20615 20618     1 
20618 20619     1 
20618 20620     1 
20618 20621     1 
20621 20622     1 
20621 20623     1 
20621 20624     1 
20624 20625     1 
20624 20626     1 
20624 20627     1 
20627 20628     1 
20627 20629     1 
20627 20630     1 
20630 20631     1 
20630 20632     1 
20630 20633     1 
20633 20634     1 
20633 20635     1 
20633 20636     1 
20637 20638     1 
20637 20641     1 
20637 20645     1 
20637 20649     1 
20638 20639     1 
20638 20640     1 
20638 20653     1 
20641 20642     1 
20641 20643     1 
20641 20644     1 
20645 20646     1 
20645 20647     1 
20645 20648     1 
20649 20650     1 
20649 20651     1 
20649 20652     1 
20653 20654     1 
20653 20655     1 
20653 20659     1 
20656 20657     1 
20656 20658     1 
20656 20659     1 
20656 20660     1 
20660 20661     1 
20661 20662     1 
20661 20663     1 
20661 20664     1 
20664 20665     1 
20664 20666     1 
20664 20672     1 
20666 20667     1 
20667 20668     1 
20667 20669     1 
20669 20670     1 
20669 20671     1 
20669 20681     1 
20672 20673     1 
20672 20674     1 
20672 20675     1 
20675 20676     1 
20676 20677     1 
20676 20678     1 
20678 20679     1 
20678 20680     1 
20678 20728     1 
20681 20682     1 
20681 20683     1 
20681 20684     1 
20684 20685     1 
20684 20686     1 
20684 20687     1 
20687 20688     1 
20687 20689     1 
20687 20690     1 
20690 20691     1 
20690 20692     1 
20690 20693     1 
20693 20694     1 
20693 20695     1 
20693 20696     1 
20696 20697     1 
20696 20698     1 
20696 20699     1 
20699 20700     1 
20699 20701     1 
20701 20702     1 
20701 20703     1 
20703 20704     1 
20703 20705     1 
20703 20706     1 
20706 20707     1 
20706 20708     1 
20706 20709     1 
20709 20710     1 
20709 20711     1 
20709 20712     1 
20712 20713     1 
20712 20714     1 
20712 20715     1 
20715 20716     1 
20715 20717     1 
20715 20718     1 
20718 20719     1 
20718 20720     1 
20718 20721     1 
20721 20722     1 
20721 20723     1 
20721 20724     1 
20724 20725     1 
20724 20726     1 
20724 20727     1 
20728 20729     1 
20728 20730     1 
20728 20731     1 
20731 20732     1 
20731 20733     1 
20731 20734     1 
20734 20735     1 
20734 20736     1 
20734 20737     1 
20737 20738     1 
20737 20739     1 
20737 20740     1 
20740 20741     1 
20740 20742     1 
20740 20743     1 
20743 20744     1 
20743 20745     1 
20743 20746     1 
20746 20747     1 
20746 20748     1 
20746 20749     1 
20749 20750     1 
20749 20751     1 
20749 20752     1 
20752 20753     1 
20752 20754     1 
20752 20755     1 
20755 20756     1 
20755 20757     1 
20755 20758     1 
20758 20759     1 
20758 20760     1 
20758 20761     1 
20761 20762     1 
20761 20763     1 
20761 20764     1 
20764 20765     1 
20764 20766     1 
20764 20767     1 
20767 20768     1 
20767 20769     1 
20767 20770     1 
20771 20772     1 
20771 20775     1 
20771 20779     1 
20771 20783     1 
20772 20773     1 
20772 20774     1 
20772 20787     1 
20775 20776     1 
20775 20777     1 
20775 20778     1 
20779 20780     1 
20779 20781     1 
20779 20782     1 
20783 20784     1 
20783 20785     1 
20783 20786     1 
20787 20788     1 
20787 20789     1 
20787 20793     1 
20790 20791     1 
20790 20792     1 
20790 20793     1 
20790 20794     1 
20794 20795     1 
20795 20796     1 
20795 20797     1 
20795 20798     1 
20798 20799     1 
20798 20800     1 
20798 20806     1 
20800 20801     1 
20801 20802     1 
20801 20803     1 
20803 20804     1 
20803 20805     1 
20803 20815     1 
20806 20807     1 
20806 20808     1 
20806 20809     1 
20809 20810     1 
20810 20811     1 
20810 20812     1 
20812 20813     1 
20812 20814     1 
20812 20862     1 
20815 20816     1 
20815 20817     1 
20815 20818     1 
20818 20819     1 
20818 20820     1 
20818 20821     1 
20821 20822     1 
20821 20823     1 
20821 20824     1 
20824 20825     1 
20824 20826     1 
20824 20827     1 
20827 20828     1 
20827 20829     1 
20827 20830     1 
20830 20831     1 
20830 20832     1 
20830 20833     1 
20833 20834     1 
20833 20835     1 
20835 20836     1 
20835 20837     1 
20837 20838     1 
20837 20839     1 
20837 20840     1 
20840 20841     1 
20840 20842     1 
20840 20843     1 
20843 20844     1 
20843 20845     1 
20843 20846     1 
20846 20847     1 
20846 20848     1 
20846 20849     1 
20849 20850     1 
20849 20851     1 
20849 20852     1 
20852 20853     1 
20852 20854     1 
20852 20855     1 
20855 20856     1 
20855 20857     1 
20855 20858     1 
20858 20859     1 
20858 20860     1 
20858 20861     1 
20862 20863     1 
20862 20864     1 
20862 20865     1 
20865 20866     1 
20865 20867     1 
20865 20868     1 
20868 20869     1 
20868 20870     1 
20868 20871     1 
20871 20872     1 
20871 20873     1 
20871 20874     1 
20874 20875     1 
20874 20876     1 
20874 20877     1 
20877 20878     1 
20877 20879     1 
20877 20880     1 
20880 20881     1 
20880 20882     1 
20880 20883     1 
20883 20884     1 
20883 20885     1 
20883 20886     1 
20886 20887     1 
20886 20888     1 
20886 20889     1 
20889 20890     1 
20889 20891     1 
20889 20892     1 
20892 20893     1 
20892 20894     1 
20892 20895     1 
20895 20896     1 
20895 20897     1 
20895 20898     1 
20898 20899     1 
20898 20900     1 
20898 20901     1 
20901 20902     1 
20901 20903     1 
20901 20904     1 
20905 20906     1 
20905 20909     1 
20905 20913     1 
20905 20917     1 
20906 20907     1 
20906 20908     1 
20906 20921     1 
20909 20910     1 
20909 20911     1 
20909 20912     1 
20913 20914     1 
20913 20915     1 
20913 20916     1 
20917 20918     1 
20917 20919     1 
20917 20920     1 
20921 20922     1 
20921 20923     1 
20921 20927     1 
20924 20925     1 
20924 20926     1 
20924 20927     1 
20924 20928     1 
20928 20929     1 
20929 20930     1 
20929 20931     1 
20929 20932     1 
20932 20933     1 
20932 20934     1 
20932 20940     1 
20934 20935     1 
20935 20936     1 
20935 20937     1 
20937 20938     1 
20937 20939     1 
20937 20949     1 
20940 20941     1 
20940 20942     1 
20940 20943     1 
20943 20944     1 
20944 20945     1 
20944 20946     1 
20946 20947     1 
20946 20948     1 
20946 20996     1 
20949 20950     1 
20949 20951     1 
20949 20952     1 
20952 20953     1 
20952 20954     1 
20952 20955     1 
20955 20956     1 
20955 20957     1 
20955 20958     1 
20958 20959     1 
20958 20960     1 
20958 20961     1 
20961 20962     1 
20961 20963     1 
20961 20964     1 
20964 20965     1 
20964 20966     1 
20964 20967     1 
20967 20968     1 
20967 20969     1 
20969 20970     1 
20969 20971     1 
20971 20972     1 
20971 20973     1 
20971 20974     1 
20974 20975     1 
20974 20976     1 
20974 20977     1 
20977 20978     1 
20977 20979     1 
20977 20980     1 
20980 20981     1 
20980 20982     1 
20980 20983     1 
20983 20984     1 
20983 20985     1 
20983 20986     1 
20986 20987     1 
20986 20988     1 
20986 20989     1 
20989 20990     1 
20989 20991     1 
20989 20992     1 
20992 20993     1 
20992 20994     1 
20992 20995     1 
20996 20997     1 
20996 20998     1 
20996 20999     1 
20999 21000     1 
20999 21001     1 
20999 21002     1 
21002 21003     1 
21002 21004     1 
21002 21005     1 
21005 21006     1 
21005 21007     1 
21005 21008     1 
21008 21009     1 
21008 21010     1 
21008 21011     1 
21011 21012     1 
21011 21013     1 
21011 21014     1 
21014 21015     1 
21014 21016     1 
21014 21017     1 
21017 21018     1 
21017 21019     1 
21017 21020     1 
21020 21021     1 
21020 21022     1 
21020 21023     1 
21023 21024     1 
21023 21025     1 
21023 21026     1 
21026 21027     1 
21026 21028     1 
21026 21029     1 
21029 21030     1 
21029 21031     1 
21029 21032     1 
21032 21033     1 
21032 21034     1 
21032 21035     1 
21035 21036     1 
21035 21037     1 
21035 21038     1 
21039 21040     1 
21039 21043     1 
21039 21047     1 
21039 21051     1 
21040 21041     1 
21040 21042     1 
21040 21055     1 
21043 21044     1 
21043 21045     1 
21043 21046     1 
21047 21048     1 
21047 21049     1 
21047 21050     1 
21051 21052     1 
21051 21053     1 
21051 21054     1 
21055 21056     1 
21055 21057     1 
21055 21061     1 
21058 21059     1 
21058 21060     1 
21058 21061     1 
21058 21062     1 
21062 21063     1 
21063 21064     1 
21063 21065     1 
21063 21066     1 
21066 21067     1 
21066 21068     1 
21066 21074     1 
21068 21069     1 
21069 21070     1 
21069 21071     1 
21071 21072     1 
21071 21073     1 
21071 21083     1 
21074 21075     1 
21074 21076     1 
21074 21077     1 
21077 21078     1 
21078 21079     1 
21078 21080     1 
21080 21081     1 
21080 21082     1 
21080 21130     1 
21083 21084     1 
21083 21085     1 
21083 21086     1 
21086 21087     1 
21086 21088     1 
21086 21089     1 
21089 21090     1 
21089 21091     1 
21089 21092     1 
21092 21093     1 
21092 21094     1 
21092 21095     1 
21095 21096     1 
21095 21097     1 
21095 21098     1 
21098 21099     1 
21098 21100     1 
21098 21101     1 
21101 21102     1 
21101 21103     1 
21103 21104     1 
21103 21105     1 
21105 21106     1 
21105 21107     1 
21105 21108     1 
21108 21109     1 
21108 21110     1 
21108 21111     1 
21111 21112     1 
21111 21113     1 
21111 21114     1 
21114 21115     1 
21114 21116     1 
21114 21117     1 
21117 21118     1 
21117 21119     1 
21117 21120     1 
21120 21121     1 
21120 21122     1 
21120 21123     1 
21123 21124     1 
21123 21125     1 
21123 21126     1 
21126 21127     1 
21126 21128     1 
21126 21129     1 
21130 21131     1 
21130 21132     1 
21130 21133     1 
21133 21134     1 
21133 21135     1 
21133 21136     1 
21136 21137     1 
21136 21138     1 
21136 21139     1 
21139 21140     1 
21139 21141     1 
21139 21142     1 
21142 21143     1 
21142 21144     1 
21142 21145     1 
21145 21146     1 
21145 21147     1 
21145 21148     1 
21148 21149     1 
21148 21150     1 
21148 21151     1 
21151 21152     1 
21151 21153     1 
21151 21154     1 
21154 21155     1 
21154 21156     1 
21154 21157     1 
21157 21158     1 
21157 21159     1 
21157 21160     1 
21160 21161     1 
21160 21162     1 
21160 21163     1 
21163 21164     1 
21163 21165     1 
21163 21166     1 
21166 21167     1 
21166 21168     1 
21166 21169     1 
21169 21170     1 
21169 21171     1 
21169 21172     1 
21173 21174     1 
21173 21177     1 
21173 21181     1 
21173 21185     1 
21174 21175     1 
21174 21176     1 
21174 21189     1 
21177 21178     1 
21177 21179     1 
21177 21180     1 
21181 21182     1 
21181 21183     1 
21181 21184     1 
21185 21186     1 
21185 21187     1 
21185 21188     1 
21189 21190     1 
21189 21191     1 
21189 21195     1 
21192 21193     1 
21192 21194     1 
21192 21195     1 
21192 21196     1 
21196 21197     1 
21197 21198     1 
21197 21199     1 
21197 21200     1 
21200 21201     1 
21200 21202     1 
21200 21208     1 
21202 21203     1 
21203 21204     1 
21203 21205     1 
21205 21206     1 
21205 21207     1 
21205 21217     1 
21208 21209     1 
21208 21210     1 
21208 21211     1 
21211 21212     1 
21212 21213     1 
21212 21214     1 
21214 21215     1 
21214 21216     1 
21214 21264     1 
21217 21218     1 
21217 21219     1 
21217 21220     1 
21220 21221     1 
21220 21222     1 
21220 21223     1 
21223 21224     1 
21223 21225     1 
21223 21226     1 
21226 21227     1 
21226 21228     1 
21226 21229     1 
21229 21230     1 
21229 21231     1 
21229 21232     1 
21232 21233     1 
21232 21234     1 
21232 21235     1 
21235 21236     1 
21235 21237     1 
21237 21238     1 
21237 21239     1 
21239 21240     1 
21239 21241     1 
21239 21242     1 
21242 21243     1 
21242 21244     1 
21242 21245     1 
21245 21246     1 
21245 21247     1 
21245 21248     1 
21248 21249     1 
21248 21250     1 
21248 21251     1 
21251 21252     1 
21251 21253     1 
21251 21254     1 
21254 21255     1 
21254 21256     1 
21254 21257     1 
21257 21258     1 
21257 21259     1 
21257 21260     1 
21260 21261     1 
21260 21262     1 
21260 21263     1 
21264 21265     1 
21264 21266     1 
21264 21267     1 
21267 21268     1 
21267 21269     1 
21267 21270     1 
21270 21271     1 
21270 21272     1 
21270 21273     1 
21273 21274     1 
21273 21275     1 
21273 21276     1 
21276 21277     1 
21276 21278     1 
21276 21279     1 
21279 21280     1 
21279 21281     1 
21279 21282     1 
21282 21283     1 
21282 21284     1 
21282 21285     1 
21285 21286     1 
21285 21287     1 
21285 21288     1 
21288 21289     1 
21288 21290     1 
21288 21291     1 
21291 21292     1 
21291 21293     1 
21291 21294     1 
21294 21295     1 
21294 21296     1 
21294 21297     1 
21297 21298     1 
21297 21299     1 
21297 21300     1 
21300 21301     1 
21300 21302     1 
21300 21303     1 
21303 21304     1 
21303 21305     1 
21303 21306     1 
21307 21308     1 
21307 21311     1 
21307 21315     1 
21307 21319     1 
21308 21309     1 
21308 21310     1 
21308 21323     1 
21311 21312     1 
21311 21313     1 
21311 21314     1 
21315 21316     1 
21315 21317     1 
21315 21318     1 
21319 21320     1 
21319 21321     1 
21319 21322     1 
21323 21324     1 
21323 21325     1 
21323 21329     1 
21326 21327     1 
21326 21328     1 
21326 21329     1 
21326 21330     1 
21330 21331     1 
21331 21332     1 
21331 21333     1 
21331 21334     1 
21334 21335     1 
21334 21336     1 
21334 21342     1 
21336 21337     1 
21337 21338     1 
21337 21339     1 
21339 21340     1 
21339 21341     1 
21339 21351     1 
21342 21343     1 
21342 21344     1 
21342 21345     1 
21345 21346     1 
21346 21347     1 
21346 21348     1 
21348 21349     1 
21348 21350     1 
21348 21398     1 
21351 21352     1 
21351 21353     1 
21351 21354     1 
21354 21355     1 
21354 21356     1 
21354 21357     1 
21357 21358     1 
21357 21359     1 
21357 21360     1 
21360 21361     1 
21360 21362     1 
21360 21363     1 
21363 21364     1 
21363 21365     1 
21363 21366     1 
21366 21367     1 
21366 21368     1 
21366 21369     1 
21369 21370     1 
21369 21371     1 
21371 21372     1 
21371 21373     1 
21373 21374     1 
21373 21375     1 
21373 21376     1 
21376 21377     1 
21376 21378     1 
21376 21379     1 
21379 21380     1 
21379 21381     1 
21379 21382     1 
21382 21383     1 
21382 21384     1 
21382 21385     1 
21385 21386     1 
21385 21387     1 
21385 21388     1 
21388 21389     1 
21388 21390     1 
21388 21391     1 
21391 21392     1 
21391 21393     1 
21391 21394     1 
21394 21395     1 
21394 21396     1 
21394 21397     1 
21398 21399     1 
21398 21400     1 
21398 21401     1 
21401 21402     1 
21401 21403     1 
21401 21404     1 
21404 21405     1 
21404 21406     1 
21404 21407     1 
21407 21408     1 
21407 21409     1 
21407 21410     1 
21410 21411     1 
21410 21412     1 
21410 21413     1 
21413 21414     1 
21413 21415     1 
21413 21416     1 
21416 21417     1 
21416 21418     1 
21416 21419     1 
21419 21420     1 
21419 21421     1 
21419 21422     1 
21422 21423     1 
21422 21424     1 
21422 21425     1 
21425 21426     1 
21425 21427     1 
21425 21428     1 
21428 21429     1 
21428 21430     1 
21428 21431     1 
21431 21432     1 
21431 21433     1 
21431 21434     1 
21434 21435     1 
21434 21436     1 
21434 21437     1 
21437 21438     1 
21437 21439     1 
21437 21440     1 
21441 21442     1 
21441 21445     1 
21441 21449     1 
21441 21453     1 
21442 21443     1 
21442 21444     1 
21442 21457     1 
21445 21446     1 
21445 21447     1 
21445 21448     1 
21449 21450     1 
21449 21451     1 
21449 21452     1 
21453 21454     1 
21453 21455     1 
21453 21456     1 
21457 21458     1 
21457 21459     1 
21457 21463     1 
21460 21461     1 
21460 21462     1 
21460 21463     1 
21460 21464     1 
21464 21465     1 
21465 21466     1 
21465 21467     1 
21465 21468     1 
21468 21469     1 
21468 21470     1 
21468 21476     1 
21470 21471     1 
21471 21472     1 
21471 21473     1 
21473 21474     1 
21473 21475     1 
21473 21485     1 
21476 21477     1 
21476 21478     1 
21476 21479     1 
21479 21480     1 
21480 21481     1 
21480 21482     1 
21482 21483     1 
21482 21484     1 
21482 21532     1 
21485 21486     1 
21485 21487     1 
21485 21488     1 
21488 21489     1 
21488 21490     1 
21488 21491     1 
21491 21492     1 
21491 21493     1 
21491 21494     1 
21494 21495     1 
21494 21496     1 
21494 21497     1 
21497 21498     1 
21497 21499     1 
21497 21500     1 
21500 21501     1 
21500 21502     1 
21500 21503     1 
21503 21504     1 
21503 21505     1 
21505 21506     1 
21505 21507     1 
21507 21508     1 
21507 21509     1 
21507 21510     1 
21510 21511     1 
21510 21512     1 
21510 21513     1 
21513 21514     1 
21513 21515     1 
21513 21516     1 
21516 21517     1 
21516 21518     1 
21516 21519     1 
21519 21520     1 
21519 21521     1 
21519 21522     1 
21522 21523     1 
21522 21524     1 
21522 21525     1 
21525 21526     1 
21525 21527     1 
21525 21528     1 
21528 21529     1 
21528 21530     1 
21528 21531     1 
21532 21533     1 
21532 21534     1 
21532 21535     1 
21535 21536     1 
21535 21537     1 
21535 21538     1 
21538 21539     1 
21538 21540     1 
21538 21541     1 
21541 21542     1 
21541 21543     1 
21541 21544     1 
21544 21545     1 
21544 21546     1 
21544 21547     1 
21547 21548     1 
21547 21549     1 
21547 21550     1 
21550 21551     1 
21550 21552     1 
21550 21553     1 
21553 21554     1 
21553 21555     1 
21553 21556     1 
21556 21557     1 
21556 21558     1 
21556 21559     1 
21559 21560     1 
21559 21561     1 
21559 21562     1 
21562 21563     1 
21562 21564     1 
21562 21565     1 
21565 21566     1 
21565 21567     1 
21565 21568     1 
21568 21569     1 
21568 21570     1 
21568 21571     1 
21571 21572     1 
21571 21573     1 
21571 21574     1 
21575 21576     1 
21575 21579     1 
21575 21583     1 
21575 21587     1 
21576 21577     1 
21576 21578     1 
21576 21591     1 
21579 21580     1 
21579 21581     1 
21579 21582     1 
21583 21584     1 
21583 21585     1 
21583 21586     1 
21587 21588     1 
21587 21589     1 
21587 21590     1 
21591 21592     1 
21591 21593     1 
21591 21597     1 
21594 21595     1 
21594 21596     1 
21594 21597     1 
21594 21598     1 
21598 21599     1 
21599 21600     1 
21599 21601     1 
21599 21602     1 
21602 21603     1 
21602 21604     1 
21602 21610     1 
21604 21605     1 
21605 21606     1 
21605 21607     1 
21607 21608     1 
21607 21609     1 
21607 21619     1 
21610 21611     1 
21610 21612     1 
21610 21613     1 
21613 21614     1 
21614 21615     1 
21614 21616     1 
21616 21617     1 
21616 21618     1 
21616 21666     1 
21619 21620     1 
21619 21621     1 
21619 21622     1 
21622 21623     1 
21622 21624     1 
21622 21625     1 
21625 21626     1 
21625 21627     1 
21625 21628     1 
21628 21629     1 
21628 21630     1 
21628 21631     1 
21631 21632     1 
21631 21633     1 
21631 21634     1 
21634 21635     1 
21634 21636     1 
21634 21637     1 
21637 21638     1 
21637 21639     1 
21639 21640     1 
21639 21641     1 
21641 21642     1 
21641 21643     1 
21641 21644     1 
21644 21645     1 
21644 21646     1 
21644 21647     1 
21647 21648     1 
21647 21649     1 
21647 21650     1 
21650 21651     1 
21650 21652     1 
21650 21653     1 
21653 21654     1 
21653 21655     1 
21653 21656     1 
21656 21657     1 
21656 21658     1 
21656 21659     1 
21659 21660     1 
21659 21661     1 
21659 21662     1 
21662 21663     1 
21662 21664     1 
21662 21665     1 
21666 21667     1 
21666 21668     1 
21666 21669     1 
21669 21670     1 
21669 21671     1 
21669 21672     1 
21672 21673     1 
21672 21674     1 
21672 21675     1 
21675 21676     1 
21675 21677     1 
21675 21678     1 
21678 21679     1 
21678 21680     1 
21678 21681     1 
21681 21682     1 
21681 21683     1 
21681 21684     1 
21684 21685     1 
21684 21686     1 
21684 21687     1 
21687 21688     1 
21687 21689     1 
21687 21690     1 
21690 21691     1 
21690 21692     1 
21690 21693     1 
21693 21694     1 
21693 21695     1 
21693 21696     1 
21696 21697     1 
21696 21698     1 
21696 21699     1 
21699 21700     1 
21699 21701     1 
21699 21702     1 
21702 21703     1 
21702 21704     1 
21702 21705     1 
21705 21706     1 
21705 21707     1 
21705 21708     1 
21709 21710     1 
21709 21713     1 
21709 21717     1 
21709 21721     1 
21710 21711     1 
21710 21712     1 
21710 21725     1 
21713 21714     1 
21713 21715     1 
21713 21716     1 
21717 21718     1 
21717 21719     1 
21717 21720     1 
21721 21722     1 
21721 21723     1 
21721 21724     1 
21725 21726     1 
21725 21727     1 
21725 21731     1 
21728 21729     1 
21728 21730     1 
21728 21731     1 
21728 21732     1 
21732 21733     1 
21733 21734     1 
21733 21735     1 
21733 21736     1 
21736 21737     1 
21736 21738     1 
21736 21744     1 
21738 21739     1 
21739 21740     1 
21739 21741     1 
21741 21742     1 
21741 21743     1 
21741 21753     1 
21744 21745     1 
21744 21746     1 
21744 21747     1 
21747 21748     1 
21748 21749     1 
21748 21750     1 
21750 21751     1 
21750 21752     1 
21750 21800     1 
21753 21754     1 
21753 21755     1 
21753 21756     1 
21756 21757     1 
21756 21758     1 
21756 21759     1 
21759 21760     1 
21759 21761     1 
21759 21762     1 
21762 21763     1 
21762 21764     1 
21762 21765     1 
21765 21766     1 
21765 21767     1 
21765 21768     1 
21768 21769     1 
21768 21770     1 
21768 21771     1 
21771 21772     1 
21771 21773     1 
21773 21774     1 
21773 21775     1 
21775 21776     1 
21775 21777     1 
21775 21778     1 
21778 21779     1 
21778 21780     1 
21778 21781     1 
21781 21782     1 
21781 21783     1 
21781 21784     1 
21784 21785     1 
21784 21786     1 
21784 21787     1 
21787 21788     1 
21787 21789     1 
21787 21790     1 
21790 21791     1 
21790 21792     1 
21790 21793     1 
21793 21794     1 
21793 21795     1 
21793 21796     1 
21796 21797     1 
21796 21798     1 
21796 21799     1 
21800 21801     1 
21800 21802     1 
21800 21803     1 
21803 21804     1 
21803 21805     1 
21803 21806     1 
21806 21807     1 
21806 21808     1 
21806 21809     1 
21809 21810     1 
21809 21811     1 
21809 21812     1 
21812 21813     1 
21812 21814     1 
21812 21815     1 
21815 21816     1 
21815 21817     1 
21815 21818     1 
21818 21819     1 
21818 21820     1 
21818 21821     1 
21821 21822     1 
21821 21823     1 
21821 21824     1 
21824 21825     1 
21824 21826     1 
21824 21827     1 
21827 21828     1 
21827 21829     1 
21827 21830     1 
21830 21831     1 
21830 21832     1 
21830 21833     1 
21833 21834     1 
21833 21835     1 
21833 21836     1 
21836 21837     1 
21836 21838     1 
21836 21839     1 
21839 21840     1 
21839 21841     1 
21839 21842     1 
21843 21844     1 
21843 21847     1 
21843 21851     1 
21843 21855     1 
21844 21845     1 
21844 21846     1 
21844 21859     1 
21847 21848     1 
21847 21849     1 
21847 21850     1 
21851 21852     1 
21851 21853     1 
21851 21854     1 
21855 21856     1 
21855 21857     1 
21855 21858     1 
21859 21860     1 
21859 21861     1 
21859 21865     1 
21862 21863     1 
21862 21864     1 
21862 21865     1 
21862 21866     1 
21866 21867     1 
21867 21868     1 
21867 21869     1 
21867 21870     1 
21870 21871     1 
21870 21872     1 
21870 21878     1 
21872 21873     1 
21873 21874     1 
21873 21875     1 
21875 21876     1 
21875 21877     1 
21875 21887     1 
21878 21879     1 
21878 21880     1 
21878 21881     1 
21881 21882     1 
21882 21883     1 
21882 21884     1 
21884 21885     1 
21884 21886     1 
21884 21934     1 
21887 21888     1 
21887 21889     1 
21887 21890     1 
21890 21891     1 
21890 21892     1 
21890 21893     1 
21893 21894     1 
21893 21895     1 
21893 21896     1 
21896 21897     1 
21896 21898     1 
21896 21899     1 
21899 21900     1 
21899 21901     1 
21899 21902     1 
21902 21903     1 
21902 21904     1 
21902 21905     1 
21905 21906     1 
21905 21907     1 
21907 21908     1 
21907 21909     1 
21909 21910     1 
21909 21911     1 
21909 21912     1 
21912 21913     1 
21912 21914     1 
21912 21915     1 
21915 21916     1 
21915 21917     1 
21915 21918     1 
21918 21919     1 
21918 21920     1 
21918 21921     1 
21921 21922     1 
21921 21923     1 
21921 21924     1 
21924 21925     1 
21924 21926     1 
21924 21927     1 
21927 21928     1 
21927 21929     1 
21927 21930     1 
21930 21931     1 
21930 21932     1 
21930 21933     1 
21934 21935     1 
21934 21936     1 
21934 21937     1 
21937 21938     1 
21937 21939     1 
21937 21940     1 
21940 21941     1 
21940 21942     1 
21940 21943     1 
21943 21944     1 
21943 21945     1 
21943 21946     1 
21946 21947     1 
21946 21948     1 
21946 21949     1 
21949 21950     1 
21949 21951     1 
21949 21952     1 
21952 21953     1 
21952 21954     1 
21952 21955     1 
21955 21956     1 
21955 21957     1 
21955 21958     1 
21958 21959     1 
21958 21960     1 
21958 21961     1 
21961 21962     1 
21961 21963     1 
21961 21964     1 
21964 21965     1 
21964 21966     1 
21964 21967     1 
21967 21968     1 
21967 21969     1 
21967 21970     1 
21970 21971     1 
21970 21972     1 
21970 21973     1 
21973 21974     1 
21973 21975     1 
21973 21976     1 
21977 21978     1 
21977 21981     1 
21977 21985     1 
21977 21989     1 
21978 21979     1 
21978 21980     1 
21978 21993     1 
21981 21982     1 
21981 21983     1 
21981 21984     1 
21985 21986     1 
21985 21987     1 
21985 21988     1 
21989 21990     1 
21989 21991     1 
21989 21992     1 
21993 21994     1 
21993 21995     1 
21993 21999     1 
21996 21997     1 
21996 21998     1 
21996 21999     1 
21996 22000     1 
22000 22001     1 
22001 22002     1 
22001 22003     1 
22001 22004     1 
22004 22005     1 
22004 22006     1 
22004 22012     1 
22006 22007     1 
22007 22008     1 
22007 22009     1 
22009 22010     1 
22009 22011     1 
22009 22021     1 
22012 22013     1 
22012 22014     1 
22012 22015     1 
22015 22016     1 
22016 22017     1 
22016 22018     1 
22018 22019     1 
22018 22020     1 
22018 22068     1 
22021 22022     1 
22021 22023     1 
22021 22024     1 
22024 22025     1 
22024 22026     1 
22024 22027     1 
22027 22028     1 
22027 22029     1 
22027 22030     1 
22030 22031     1 
22030 22032     1 
22030 22033     1 
22033 22034     1 
22033 22035     1 
22033 22036     1 
22036 22037     1 
22036 22038     1 
22036 22039     1 
22039 22040     1 
22039 22041     1 
22041 22042     1 
22041 22043     1 
22043 22044     1 
22043 22045     1 
22043 22046     1 
22046 22047     1 
22046 22048     1 
22046 22049     1 
22049 22050     1 
22049 22051     1 
22049 22052     1 
22052 22053     1 
22052 22054     1 
22052 22055     1 
22055 22056     1 
22055 22057     1 
22055 22058     1 
22058 22059     1 
22058 22060     1 
22058 22061     1 
22061 22062     1 
22061 22063     1 
22061 22064     1 
22064 22065     1 
22064 22066     1 
22064 22067     1 
22068 22069     1 
22068 22070     1 
22068 22071     1 
22071 22072     1 
22071 22073     1 
22071 22074     1 
22074 22075     1 
22074 22076     1 
22074 22077     1 
22077 22078     1 
22077 22079     1 
22077 22080     1 
22080 22081     1 
22080 22082     1 
22080 22083     1 
22083 22084     1 
22083 22085     1 
22083 22086     1 
22086 22087     1 
22086 22088     1 
22086 22089     1 
22089 22090     1 
22089 22091     1 
22089 22092     1 
22092 22093     1 
22092 22094     1 
22092 22095     1 
22095 22096     1 
22095 22097     1 
22095 22098     1 
22098 22099     1 
22098 22100     1 
22098 22101     1 
22101 22102     1 
22101 22103     1 
22101 22104     1 
22104 22105     1 
22104 22106     1 
22104 22107     1 
22107 22108     1 
22107 22109     1 
22107 22110     1 
22111 22112     1 
22111 22115     1 
22111 22119     1 
22111 22123     1 
22112 22113     1 
22112 22114     1 
22112 22127     1 
22115 22116     1 
22115 22117     1 
22115 22118     1 
22119 22120     1 
22119 22121     1 
22119 22122     1 
22123 22124     1 
22123 22125     1 
22123 22126     1 
22127 22128     1 
22127 22129     1 
22127 22133     1 
22130 22131     1 
22130 22132     1 
22130 22133     1 
22130 22134     1 
22134 22135     1 
22135 22136     1 
22135 22137     1 
22135 22138     1 
22138 22139     1 
22138 22140     1 
22138 22146     1 
22140 22141     1 
22141 22142     1 
22141 22143     1 
22143 22144     1 
22143 22145     1 
22143 22155     1 
22146 22147     1 
22146 22148     1 
22146 22149     1 
22149 22150     1 
22150 22151     1 
22150 22152     1 
22152 22153     1 
22152 22154     1 
22152 22202     1 
22155 22156     1 
22155 22157     1 
22155 22158     1 
22158 22159     1 
22158 22160     1 
22158 22161     1 
22161 22162     1 
22161 22163     1 
22161 22164     1 
22164 22165     1 
22164 22166     1 
22164 22167     1 
22167 22168     1 
22167 22169     1 
22167 22170     1 
22170 22171     1 
22170 22172     1 
22170 22173     1 
22173 22174     1 
22173 22175     1 
22175 22176     1 
22175 22177     1 
22177 22178     1 
22177 22179     1 
22177 22180     1 
22180 22181     1 
22180 22182     1 
22180 22183     1 
22183 22184     1 
22183 22185     1 
22183 22186     1 
22186 22187     1 
22186 22188     1 
22186 22189     1 
22189 22190     1 
22189 22191     1 
22189 22192     1 
22192 22193     1 
22192 22194     1 
22192 22195     1 
22195 22196     1 
22195 22197     1 
22195 22198     1 
22198 22199     1 
22198 22200     1 
22198 22201     1 
22202 22203     1 
22202 22204     1 
22202 22205     1 
22205 22206     1 
22205 22207     1 
22205 22208     1 
22208 22209     1 
22208 22210     1 
22208 22211     1 
22211 22212     1 
22211 22213     1 
22211 22214     1 
22214 22215     1 
22214 22216     1 
22214 22217     1 
22217 22218     1 
22217 22219     1 
22217 22220     1 
22220 22221     1 
22220 22222     1 
22220 22223     1 
22223 22224     1 
22223 22225     1 
22223 22226     1 
22226 22227     1 
22226 22228     1 
22226 22229     1 
22229 22230     1 
22229 22231     1 
22229 22232     1 
22232 22233     1 
22232 22234     1 
22232 22235     1 
22235 22236     1 
22235 22237     1 
22235 22238     1 
22238 22239     1 
22238 22240     1 
22238 22241     1 
22241 22242     1 
22241 22243     1 
22241 22244     1 
22245 22246     1 
22245 22249     1 
22245 22253     1 
22245 22257     1 
22246 22247     1 
22246 22248     1 
22246 22261     1 
22249 22250     1 
22249 22251     1 
22249 22252     1 
22253 22254     1 
22253 22255     1 
22253 22256     1 
22257 22258     1 
22257 22259     1 
22257 22260     1 
22261 22262     1 
22261 22263     1 
22261 22267     1 
22264 22265     1 
22264 22266     1 
22264 22267     1 
22264 22268     1 
22268 22269     1 
22269 22270     1 
22269 22271     1 
22269 22272     1 
22272 22273     1 
22272 22274     1 
22272 22280     1 
22274 22275     1 
22275 22276     1 
22275 22277     1 
22277 22278     1 
22277 22279     1 
22277 22289     1 
22280 22281     1 
22280 22282     1 
22280 22283     1 
22283 22284     1 
22284 22285     1 
22284 22286     1 
22286 22287     1 
22286 22288     1 
22286 22336     1 
22289 22290     1 
22289 22291     1 
22289 22292     1 
22292 22293     1 
22292 22294     1 
22292 22295     1 
22295 22296     1 
22295 22297     1 
22295 22298     1 
22298 22299     1 
22298 22300     1 
22298 22301     1 
22301 22302     1 
22301 22303     1 
22301 22304     1 
22304 22305     1 
22304 22306     1 
22304 22307     1 
22307 22308     1 
22307 22309     1 
22309 22310     1 
22309 22311     1 
22311 22312     1 
22311 22313     1 
22311 22314     1 
22314 22315     1 
22314 22316     1 
22314 22317     1 
22317 22318     1 
22317 22319     1 
22317 22320     1 
22320 22321     1 
22320 22322     1 
22320 22323     1 
22323 22324     1 
22323 22325     1 
22323 22326     1 
22326 22327     1 
22326 22328     1 
22326 22329     1 
22329 22330     1 
22329 22331     1 
22329 22332     1 
22332 22333     1 
22332 22334     1 
22332 22335     1 
22336 22337     1 
22336 22338     1 
22336 22339     1 
22339 22340     1 
22339 22341     1 
22339 22342     1 
22342 22343     1 
22342 22344     1 
22342 22345     1 
22345 22346     1 
22345 22347     1 
22345 22348     1 
22348 22349     1 
22348 22350     1 
22348 22351     1 
22351 22352     1 
22351 22353     1 
22351 22354     1 
22354 22355     1 
22354 22356     1 
22354 22357     1 
22357 22358     1 
22357 22359     1 
22357 22360     1 
22360 22361     1 
22360 22362     1 
22360 22363     1 
22363 22364     1 
22363 22365     1 
22363 22366     1 
22366 22367     1 
22366 22368     1 
22366 22369     1 
22369 22370     1 
22369 22371     1 
22369 22372     1 
22372 22373     1 
22372 22374     1 
22372 22375     1 
22375 22376     1 
22375 22377     1 
22375 22378     1 
22379 22380     1 
22379 22383     1 
22379 22387     1 
22379 22391     1 
22380 22381     1 
22380 22382     1 
22380 22395     1 
22383 22384     1 
22383 22385     1 
22383 22386     1 
22387 22388     1 
22387 22389     1 
22387 22390     1 
22391 22392     1 
22391 22393     1 
22391 22394     1 
22395 22396     1 
22395 22397     1 
22395 22401     1 
22398 22399     1 
22398 22400     1 
22398 22401     1 
22398 22402     1 
22402 22403     1 
22403 22404     1 
22403 22405     1 
22403 22406     1 
22406 22407     1 
22406 22408     1 
22406 22414     1 
22408 22409     1 
22409 22410     1 
22409 22411     1 
22411 22412     1 
22411 22413     1 
22411 22423     1 
22414 22415     1 
22414 22416     1 
22414 22417     1 
22417 22418     1 
22418 22419     1 
22418 22420     1 
22420 22421     1 
22420 22422     1 
22420 22470     1 
22423 22424     1 
22423 22425     1 
22423 22426     1 
22426 22427     1 
22426 22428     1 
22426 22429     1 
22429 22430     1 
22429 22431     1 
22429 22432     1 
22432 22433     1 
22432 22434     1 
22432 22435     1 
22435 22436     1 
22435 22437     1 
22435 22438     1 
22438 22439     1 
22438 22440     1 
22438 22441     1 
22441 22442     1 
22441 22443     1 
22443 22444     1 
22443 22445     1 
22445 22446     1 
22445 22447     1 
22445 22448     1 
22448 22449     1 
22448 22450     1 
22448 22451     1 
22451 22452     1 
22451 22453     1 
22451 22454     1 
22454 22455     1 
22454 22456     1 
22454 22457     1 
22457 22458     1 
22457 22459     1 
22457 22460     1 
22460 22461     1 
22460 22462     1 
22460 22463     1 
22463 22464     1 
22463 22465     1 
22463 22466     1 
22466 22467     1 
22466 22468     1 
22466 22469     1 
22470 22471     1 
22470 22472     1 
22470 22473     1 
22473 22474     1 
22473 22475     1 
22473 22476     1 
22476 22477     1 
22476 22478     1 
22476 22479     1 
22479 22480     1 
22479 22481     1 
22479 22482     1 
22482 22483     1 
22482 22484     1 
22482 22485     1 
22485 22486     1 
22485 22487     1 
22485 22488     1 
22488 22489     1 
22488 22490     1 
22488 22491     1 
22491 22492     1 
22491 22493     1 
22491 22494     1 
22494 22495     1 
22494 22496     1 
22494 22497     1 
22497 22498     1 
22497 22499     1 
22497 22500     1 
22500 22501     1 
22500 22502     1 
22500 22503     1 
22503 22504     1 
22503 22505     1 
22503 22506     1 
22506 22507     1 
22506 22508     1 
22506 22509     1 
22509 22510     1 
22509 22511     1 
22509 22512     1 
22513 22514     1 
22513 22517     1 
22513 22521     1 
22513 22525     1 
22514 22515     1 
22514 22516     1 
22514 22529     1 
22517 22518     1 
22517 22519     1 
22517 22520     1 
22521 22522     1 
22521 22523     1 
22521 22524     1 
22525 22526     1 
22525 22527     1 
22525 22528     1 
22529 22530     1 
22529 22531     1 
22529 22535     1 
22532 22533     1 
22532 22534     1 
22532 22535     1 
22532 22536     1 
22536 22537     1 
22537 22538     1 
22537 22539     1 
22537 22540     1 
22540 22541     1 
22540 22542     1 
22540 22548     1 
22542 22543     1 
22543 22544     1 
22543 22545     1 
22545 22546     1 
22545 22547     1 
22545 22557     1 
22548 22549     1 
22548 22550     1 
22548 22551     1 
22551 22552     1 
22552 22553     1 
22552 22554     1 
22554 22555     1 
22554 22556     1 
22554 22604     1 
22557 22558     1 
22557 22559     1 
22557 22560     1 
22560 22561     1 
22560 22562     1 
22560 22563     1 
22563 22564     1 
22563 22565     1 
22563 22566     1 
22566 22567     1 
22566 22568     1 
22566 22569     1 
22569 22570     1 
22569 22571     1 
22569 22572     1 
22572 22573     1 
22572 22574     1 
22572 22575     1 
22575 22576     1 
22575 22577     1 
22577 22578     1 
22577 22579     1 
22579 22580     1 
22579 22581     1 
22579 22582     1 
22582 22583     1 
22582 22584     1 
22582 22585     1 
22585 22586     1 
22585 22587     1 
22585 22588     1 
22588 22589     1 
22588 22590     1 
22588 22591     1 
22591 22592     1 
22591 22593     1 
22591 22594     1 
22594 22595     1 
22594 22596     1 
22594 22597     1 
22597 22598     1 
22597 22599     1 
22597 22600     1 
22600 22601     1 
22600 22602     1 
22600 22603     1 
22604 22605     1 
22604 22606     1 
22604 22607     1 
22607 22608     1 
22607 22609     1 
22607 22610     1 
22610 22611     1 
22610 22612     1 
22610 22613     1 
22613 22614     1 
22613 22615     1 
22613 22616     1 
22616 22617     1 
22616 22618     1 
22616 22619     1 
22619 22620     1 
22619 22621     1 
22619 22622     1 
22622 22623     1 
22622 22624     1 
22622 22625     1 
22625 22626     1 
22625 22627     1 
22625 22628     1 
22628 22629     1 
22628 22630     1 
22628 22631     1 
22631 22632     1 
22631 22633     1 
22631 22634     1 
22634 22635     1 
22634 22636     1 
22634 22637     1 
22637 22638     1 
22637 22639     1 
22637 22640     1 
22640 22641     1 
22640 22642     1 
22640 22643     1 
22643 22644     1 
22643 22645     1 
22643 22646     1 

[ pairs ]
;  ai    aj funct            c0            c1            c2            c3
    1    18     1 
    1    19     1 
    1    23     1 
    2     6     1 
    2     7     1 
    2     8     1 
    2    10     1 
    2    11     1 
    2    12     1 
    2    14     1 
    2    15     1 
    2    16     1 
    2    20     1 
    3     5     1 
    3     9     1 
    3    13     1 
    3    18     1 
    3    19     1 
    3    23     1 
    4     5     1 
    4     9     1 
    4    13     1 
    4    18     1 
    4    19     1 
    4    23     1 
    5    10     1 
    5    11     1 
    5    12     1 
    5    14     1 
    5    15     1 
    5    16     1 
    5    17     1 
    6     9     1 
    6    13     1 
    7     9     1 
    7    13     1 
    8     9     1 
    8    13     1 
    9    14     1 
    9    15     1 
    9    16     1 
    9    17     1 
   10    13     1 
   11    13     1 
   12    13     1 
   13    17     1 
   17    21     1 
   17    22     1 
   17    24     1 
   18    20     1 
   19    20     1 
   20    26     1 
   20    27     1 
   20    28     1 
   21    25     1 
   22    25     1 
   23    25     1 
   24    29     1 
   24    30     1 
   24    36     1 
   25    31     1 
   25    37     1 
   25    38     1 
   25    39     1 
   26    29     1 
   26    30     1 
   26    36     1 
   27    29     1 
   27    30     1 
   27    36     1 
   28    32     1 
   28    33     1 
   28    40     1 
   29    31     1 
   29    37     1 
   29    38     1 
   29    39     1 
   30    34     1 
   30    35     1 
   30    37     1 
   30    38     1 
   30    39     1 
   30    45     1 
   31    36     1 
   31    46     1 
   31    47     1 
   31    48     1 
   32    34     1 
   32    35     1 
   32    45     1 
   33    49     1 
   33    50     1 
   33    51     1 
   34    46     1 
   34    47     1 
   34    48     1 
   35    46     1 
   35    47     1 
   35    48     1 
   36    41     1 
   36    42     1 
   37    40     1 
   38    40     1 
   39    43     1 
   39    44     1 
   39    92     1 
   40    93     1 
   40    94     1 
   40    95     1 
   41    43     1 
   41    44     1 
   41    92     1 
   42    96     1 
   42    97     1 
   42    98     1 
   43    93     1 
   43    94     1 
   43    95     1 
   44    93     1 
   44    94     1 
   44    95     1 
   45    52     1 
   45    53     1 
   45    54     1 
   46    49     1 
   46    50     1 
   46    51     1 
   47    49     1 
   47    50     1 
   47    51     1 
   48    55     1 
   48    56     1 
   48    57     1 
   49    52     1 
   49    53     1 
   49    54     1 
   50    52     1 
   50    53     1 
   50    54     1 
   51    58     1 
   51    59     1 
   51    60     1 
   52    55     1 
   52    56     1 
   52    57     1 
   53    55     1 
   53    56     1 
   53    57     1 
   54    61     1 
   54    62     1 
   54    63     1 
   55    58     1 
   55    59     1 
   55    60     1 
   56    58     1 
   56    59     1 
   56    60     1 
   57    64     1 
   57    65     1 
   58    61     1 
   58    62     1 
   58    63     1 
   59    61     1 
   59    62     1 
   59    63     1 
   60    66     1 
   60    67     1 
   61    64     1 
   61    65     1 
   62    64     1 
   62    65     1 
   63    68     1 
   63    69     1 
   63    70     1 
   64    66     1 
   64    67     1 
   65    71     1 
   65    72     1 
   65    73     1 
   66    68     1 
   66    69     1 
   66    70     1 
   67    74     1 
   67    75     1 
   67    76     1 
   68    71     1 
   68    72     1 
   68    73     1 
   69    71     1 
   69    72     1 
   69    73     1 
   70    77     1 
   70    78     1 
   70    79     1 
   71    74     1 
   71    75     1 
   71    76     1 
   72    74     1 
   72    75     1 
   72    76     1 
   73    80     1 
   73    81     1 
   73    82     1 
   74    77     1 
   74    78     1 
   74    79     1 
   75    77     1 
   75    78     1 
   75    79     1 
   76    83     1 
   76    84     1 
   76    85     1 
   77    80     1 
   77    81     1 
   77    82     1 
   78    80     1 
   78    81     1 
   78    82     1 
   79    86     1 
   79    87     1 
   79    88     1 
   80    83     1 
   80    84     1 
   80    85     1 
   81    83     1 
   81    84     1 
   81    85     1 
   82    89     1 
   82    90     1 
   82    91     1 
   83    86     1 
   83    87     1 
   83    88     1 
   84    86     1 
   84    87     1 
   84    88     1 
   86    89     1 
   86    90     1 
   86    91     1 
   87    89     1 
   87    90     1 
   87    91     1 
   92    99     1 
   92   100     1 
   92   101     1 
   93    96     1 
   93    97     1 
   93    98     1 
   94    96     1 
   94    97     1 
   94    98     1 
   95   102     1 
   95   103     1 
   95   104     1 
   96    99     1 
   96   100     1 
   96   101     1 
   97    99     1 
   97   100     1 
   97   101     1 
   98   105     1 
   98   106     1 
   98   107     1 
   99   102     1 
   99   103     1 
   99   104     1 
  100   102     1 
  100   103     1 
  100   104     1 
  101   108     1 
  101   109     1 
  101   110     1 
  102   105     1 
  102   106     1 
  102   107     1 
  103   105     1 
  103   106     1 
  103   107     1 
  104   111     1 
  104   112     1 
  104   113     1 
  105   108     1 
  105   109     1 
  105   110     1 
  106   108     1 
  106   109     1 
  106   110     1 
  107   114     1 
  107   115     1 
  107   116     1 
  108   111     1 
  108   112     1 
  108   113     1 
  109   111     1 
  109   112     1 
  109   113     1 
  110   117     1 
  110   118     1 
  110   119     1 
  111   114     1 
  111   115     1 
  111   116     1 
  112   114     1 
  112   115     1 
  112   116     1 
  113   120     1 
  113   121     1 
  113   122     1 
  114   117     1 
  114   118     1 
  114   119     1 
  115   117     1 
  115   118     1 
  115   119     1 
  116   123     1 
  116   124     1 
  116   125     1 
  117   120     1 
  117   121     1 
  117   122     1 
  118   120     1 
  118   121     1 
  118   122     1 
  119   126     1 
  119   127     1 
  119   128     1 
  120   123     1 
  120   124     1 
  120   125     1 
  121   123     1 
  121   124     1 
  121   125     1 
  122   129     1 
  122   130     1 
  122   131     1 
  123   126     1 
  123   127     1 
  123   128     1 
  124   126     1 
  124   127     1 
  124   128     1 
  125   132     1 
  125   133     1 
  125   134     1 
  126   129     1 
  126   130     1 
  126   131     1 
  127   129     1 
  127   130     1 
  127   131     1 
  129   132     1 
  129   133     1 
  129   134     1 
  130   132     1 
  130   133     1 
  130   134     1 
  135   152     1 
  135   153     1 
  135   157     1 
  136   140     1 
  136   141     1 
  136   142     1 
  136   144     1 
  136   145     1 
  136   146     1 
  136   148     1 
  136   149     1 
  136   150     1 
  136   154     1 
  137   139     1 
  137   143     1 
  137   147     1 
  137   152     1 
  137   153     1 
  137   157     1 
  138   139     1 
  138   143     1 
  138   147     1 
  138   152     1 
  138   153     1 
  138   157     1 
  139   144     1 
  139   145     1 
  139   146     1 
  139   148     1 
  139   149     1 
  139   150     1 
  139   151     1 
  140   143     1 
  140   147     1 
  141   143     1 
  141   147     1 
  142   143     1 
  142   147     1 
  143   148     1 
  143   149     1 
  143   150     1 
  143   151     1 
  144   147     1 
  145   147     1 
  146   147     1 
  147   151     1 
  151   155     1 
  151   156     1 
  151   158     1 
  152   154     1 
  153   154     1 
  154   160     1 
  154   161     1 
  154   162     1 
  155   159     1 
  156   159     1 
  157   159     1 
  158   163     1 
  158   164     1 
  158   170     1 
  159   165     1 
  159   171     1 
  159   172     1 
  159   173     1 
  160   163     1 
  160   164     1 
  160   170     1 
  161   163     1 
  161   164     1 
  161   170     1 
  162   166     1 
  162   167     1 
  162   174     1 
  163   165     1 
  163   171     1 
  163   172     1 
  163   173     1 
  164   168     1 
  164   169     1 
  164   171     1 
  164   172     1 
  164   173     1 
  164   179     1 
  165   170     1 
  165   180     1 
  165   181     1 
  165   182     1 
  166   168     1 
  166   169     1 
  166   179     1 
  167   183     1 
  167   184     1 
  167   185     1 
  168   180     1 
  168   181     1 
  168   182     1 
  169   180     1 
  169   181     1 
  169   182     1 
  170   175     1 
  170   176     1 
  171   174     1 
  172   174     1 
  173   177     1 
  173   178     1 
  173   226     1 
  174   227     1 
  174   228     1 
  174   229     1 
  175   177     1 
  175   178     1 
  175   226     1 
  176   230     1 
  176   231     1 
  176   232     1 
  177   227     1 
  177   228     1 
  177   229     1 
  178   227     1 
  178   228     1 
  178   229     1 
  179   186     1 
  179   187     1 
  179   188     1 
  180   183     1 
  180   184     1 
  180   185     1 
  181   183     1 
  181   184     1 
  181   185     1 
  182   189     1 
  182   190     1 
  182   191     1 
  183   186     1 
  183   187     1 
  183   188     1 
  184   186     1 
  184   187     1 
  184   188     1 
  185   192     1 
  185   193     1 
  185   194     1 
  186   189     1 
  186   190     1 
  186   191     1 
  187   189     1 
  187   190     1 
  187   191     1 
  188   195     1 
  188   196     1 
  188   197     1 
  189   192     1 
  189   193     1 
  189   194     1 
  190   192     1 
  190   193     1 
  190   194     1 
  191   198     1 
  191   199     1 
  192   195     1 
  192   196     1 
  192   197     1 
  193   195     1 
  193   196     1 
  193   197     1 
  194   200     1 
  194   201     1 
  195   198     1 
  195   199     1 
  196   198     1 
  196   199     1 
  197   202     1 
  197   203     1 
  197   204     1 
  198   200     1 
  198   201     1 
  199   205     1 
  199   206     1 
  199   207     1 
  200   202     1 
  200   203     1 
  200   204     1 
  201   208     1 
  201   209     1 
  201   210     1 
  202   205     1 
  202   206     1 
  202   207     1 
  203   205     1 
  203   206     1 
  203   207     1 
  204   211     1 
  204   212     1 
  204   213     1 
  205   208     1 
  205   209     1 
  205   210     1 
  206   208     1 
  206   209     1 
  206   210     1 
  207   214     1 
  207   215     1 
  207   216     1 
  208   211     1 
  208   212     1 
  208   213     1 
  209   211     1 
  209   212     1 
  209   213     1 
  210   217     1 
  210   218     1 
  210   219     1 
  211   214     1 
  211   215     1 
  211   216     1 
  212   214     1 
  212   215     1 
  212   216     1 
  213   220     1 
  213   221     1 
  213   222     1 
  214   217     1 
  214   218     1 
  214   219     1 
  215   217     1 
  215   218     1 
  215   219     1 
  216   223     1 
  216   224     1 
  216   225     1 
  217   220     1 
  217   221     1 
  217   222     1 
  218   220     1 
  218   221     1 
  218   222     1 
  220   223     1 
  220   224     1 
  220   225     1 
  221   223     1 
  221   224     1 
  221   225     1 
  226   233     1 
  226   234     1 
  226   235     1 
  227   230     1 
  227   231     1 
  227   232     1 
  228   230     1 
  228   231     1 
  228   232     1 
  229   236     1 
  229   237     1 
  229   238     1 
  230   233     1 
  230   234     1 
  230   235     1 
  231   233     1 
  231   234     1 
  231   235     1 
  232   239     1 
  232   240     1 
  232   241     1 
  233   236     1 
  233   237     1 
  233   238     1 
  234   236     1 
  234   237     1 
  234   238     1 
  235   242     1 
  235   243     1 
  235   244     1 
  236   239     1 
  236   240     1 
  236   241     1 
  237   239     1 
  237   240     1 
  237   241     1 
  238   245     1 
  238   246     1 
  238   247     1 
  239   242     1 
  239   243     1 
  239   244     1 
  240   242     1 
  240   243     1 
  240   244     1 
  241   248     1 
  241   249     1 
  241   250     1 
  242   245     1 
  242   246     1 
  242   247     1 
  243   245     1 
  243   246     1 
  243   247     1 
  244   251     1 
  244   252     1 
  244   253     1 
  245   248     1 
  245   249     1 
  245   250     1 
  246   248     1 
  246   249     1 
  246   250     1 
  247   254     1 
  247   255     1 
  247   256     1 
  248   251     1 
  248   252     1 
  248   253     1 
  249   251     1 
  249   252     1 
  249   253     1 
  250   257     1 
  250   258     1 
  250   259     1 
  251   254     1 
  251   255     1 
  251   256     1 
  252   254     1 
  252   255     1 
  252   256     1 
  253   260     1 
  253   261     1 
  253   262     1 
  254   257     1 
  254   258     1 
  254   259     1 
  255   257     1 
  255   258     1 
  255   259     1 
  256   263     1 
  256   264     1 
  256   265     1 
  257   260     1 
  257   261     1 
  257   262     1 
  258   260     1 
  258   261     1 
  258   262     1 
  259   266     1 
  259   267     1 
  259   268     1 
  260   263     1 
  260   264     1 
  260   265     1 
  261   263     1 
  261   264     1 
  261   265     1 
  263   266     1 
  263   267     1 
  263   268     1 
  264   266     1 
  264   267     1 
  264   268     1 
  269   286     1 
  269   287     1 
  269   291     1 
  270   274     1 
  270   275     1 
  270   276     1 
  270   278     1 
  270   279     1 
  270   280     1 
  270   282     1 
  270   283     1 
  270   284     1 
  270   288     1 
  271   273     1 
  271   277     1 
  271   281     1 
  271   286     1 
  271   287     1 
  271   291     1 
  272   273     1 
  272   277     1 
  272   281     1 
  272   286     1 
  272   287     1 
  272   291     1 
  273   278     1 
  273   279     1 
  273   280     1 
  273   282     1 
  273   283     1 
  273   284     1 
  273   285     1 
  274   277     1 
  274   281     1 
  275   277     1 
  275   281     1 
  276   277     1 
  276   281     1 
  277   282     1 
  277   283     1 
  277   284     1 
  277   285     1 
  278   281     1 
  279   281     1 
  280   281     1 
  281   285     1 
  285   289     1 
  285   290     1 
  285   292     1 
  286   288     1 
  287   288     1 
  288   294     1 
  288   295     1 
  288   296     1 
  289   293     1 
  290   293     1 
  291   293     1 
  292   297     1 
  292   298     1 
  292   304     1 
  293   299     1 
  293   305     1 
  293   306     1 
  293   307     1 
  294   297     1 
  294   298     1 
  294   304     1 
  295   297     1 
  295   298     1 
  295   304     1 
  296   300     1 
  296   301     1 
  296   308     1 
  297   299     1 
  297   305     1 
  297   306     1 
  297   307     1 
  298   302     1 
  298   303     1 
  298   305     1 
  298   306     1 
  298   307     1 
  298   313     1 
  299   304     1 
  299   314     1 
  299   315     1 
  299   316     1 
  300   302     1 
  300   303     1 
  300   313     1 
  301   317     1 
  301   318     1 
  301   319     1 
  302   314     1 
  302   315     1 
  302   316     1 
  303   314     1 
  303   315     1 
  303   316     1 
  304   309     1 
  304   310     1 
  305   308     1 
  306   308     1 
  307   311     1 
  307   312     1 
  307   360     1 
  308   361     1 
  308   362     1 
  308   363     1 
  309   311     1 
  309   312     1 
  309   360     1 
  310   364     1 
  310   365     1 
  310   366     1 
  311   361     1 
  311   362     1 
  311   363     1 
  312   361     1 
  312   362     1 
  312   363     1 
  313   320     1 
  313   321     1 
  313   322     1 
  314   317     1 
  314   318     1 
  314   319     1 
  315   317     1 
  315   318     1 
  315   319     1 
  316   323     1 
  316   324     1 
  316   325     1 
  317   320     1 
  317   321     1 
  317   322     1 
  318   320     1 
  318   321     1 
  318   322     1 
  319   326     1 
  319   327     1 
  319   328     1 
  320   323     1 
  320   324     1 
  320   325     1 
  321   323     1 
  321   324     1 
  321   325     1 
  322   329     1 
  322   330     1 
  322   331     1 
  323   326     1 
  323   327     1 
  323   328     1 
  324   326     1 
  324   327     1 
  324   328     1 
  325   332     1 
  325   333     1 
  326   329     1 
  326   330     1 
  326   331     1 
  327   329     1 
  327   330     1 
  327   331     1 
  328   334     1 
  328   335     1 
  329   332     1 
  329   333     1 
  330   332     1 
  330   333     1 
  331   336     1 
  331   337     1 
  331   338     1 
  332   334     1 
  332   335     1 
  333   339     1 
  333   340     1 
  333   341     1 
  334   336     1 
  334   337     1 
  334   338     1 
  335   342     1 
  335   343     1 
  335   344     1 
  336   339     1 
  336   340     1 
  336   341     1 
  337   339     1 
  337   340     1 
  337   341     1 
  338   345     1 
  338   346     1 
  338   347     1 
  339   342     1 
  339   343     1 
  339   344     1 
  340   342     1 
  340   343     1 
  340   344     1 
  341   348     1 
  341   349     1 
  341   350     1 
  342   345     1 
  342   346     1 
  342   347     1 
  343   345     1 
  343   346     1 
  343   347     1 
  344   351     1 
  344   352     1 
  344   353     1 
  345   348     1 
  345   349     1 
  345   350     1 
  346   348     1 
  346   349     1 
  346   350     1 
  347   354     1 
  347   355     1 
  347   356     1 
  348   351     1 
  348   352     1 
  348   353     1 
  349   351     1 
  349   352     1 
  349   353     1 
  350   357     1 
  350   358     1 
  350   359     1 
  351   354     1 
  351   355     1 
  351   356     1 
  352   354     1 
  352   355     1 
  352   356     1 
  354   357     1 
  354   358     1 
  354   359     1 
  355   357     1 
  355   358     1 
  355   359     1 
  360   367     1 
  360   368     1 
  360   369     1 
  361   364     1 
  361   365     1 
  361   366     1 
  362   364     1 
  362   365     1 
  362   366     1 
  363   370     1 
  363   371     1 
  363   372     1 
  364   367     1 
  364   368     1 
  364   369     1 
  365   367     1 
  365   368     1 
  365   369     1 
  366   373     1 
  366   374     1 
  366   375     1 
  367   370     1 
  367   371     1 
  367   372     1 
  368   370     1 
  368   371     1 
  368   372     1 
  369   376     1 
  369   377     1 
  369   378     1 
  370   373     1 
  370   374     1 
  370   375     1 
  371   373     1 
  371   374     1 
  371   375     1 
  372   379     1 
  372   380     1 
  372   381     1 
  373   376     1 
  373   377     1 
  373   378     1 
  374   376     1 
  374   377     1 
  374   378     1 
  375   382     1 
  375   383     1 
  375   384     1 
  376   379     1 
  376   380     1 
  376   381     1 
  377   379     1 
  377   380     1 
  377   381     1 
  378   385     1 
  378   386     1 
  378   387     1 
  379   382     1 
  379   383     1 
  379   384     1 
  380   382     1 
  380   383     1 
  380   384     1 
  381   388     1 
  381   389     1 
  381   390     1 
  382   385     1 
  382   386     1 
  382   387     1 
  383   385     1 
  383   386     1 
  383   387     1 
  384   391     1 
  384   392     1 
  384   393     1 
  385   388     1 
  385   389     1 
  385   390     1 
  386   388     1 
  386   389     1 
  386   390     1 
  387   394     1 
  387   395     1 
  387   396     1 
  388   391     1 
  388   392     1 
  388   393     1 
  389   391     1 
  389   392     1 
  389   393     1 
  390   397     1 
  390   398     1 
  390   399     1 
  391   394     1 
  391   395     1 
  391   396     1 
  392   394     1 
  392   395     1 
  392   396     1 
  393   400     1 
  393   401     1 
  393   402     1 
  394   397     1 
  394   398     1 
  394   399     1 
  395   397     1 
  395   398     1 
  395   399     1 
  397   400     1 
  397   401     1 
  397   402     1 
  398   400     1 
  398   401     1 
  398   402     1 
  403   420     1 
  403   421     1 
  403   425     1 
  404   408     1 
  404   409     1 
  404   410     1 
  404   412     1 
  404   413     1 
  404   414     1 
  404   416     1 
  404   417     1 
  404   418     1 
  404   422     1 
  405   407     1 
  405   411     1 
  405   415     1 
  405   420     1 
  405   421     1 
  405   425     1 
  406   407     1 
  406   411     1 
  406   415     1 
  406   420     1 
  406   421     1 
  406   425     1 
  407   412     1 
  407   413     1 
  407   414     1 
  407   416     1 
  407   417     1 
  407   418     1 
  407   419     1 
  408   411     1 
  408   415     1 
  409   411     1 
  409   415     1 
  410   411     1 
  410   415     1 
  411   416     1 
  411   417     1 
  411   418     1 
  411   419     1 
  412   415     1 
  413   415     1 
  414   415     1 
  415   419     1 
  419   423     1 
  419   424     1 
  419   426     1 
  420   422     1 
  421   422     1 
  422   428     1 
  422   429     1 
  422   430     1 
  423   427     1 
  424   427     1 
  425   427     1 
  426   431     1 
  426   432     1 
  426   438     1 
  427   433     1 
  427   439     1 
  427   440     1 
  427   441     1 
  428   431     1 
  428   432     1 
  428   438     1 
  429   431     1 
  429   432     1 
  429   438     1 
  430   434     1 
  430   435     1 
  430   442     1 
  431   433     1 
  431   439     1 
  431   440     1 
  431   441     1 
  432   436     1 
  432   437     1 
  432   439     1 
  432   440     1 
  432   441     1 
  432   447     1 
  433   438     1 
  433   448     1 
  433   449     1 
  433   450     1 
  434   436     1 
  434   437     1 
  434   447     1 
  435   451     1 
  435   452     1 
  435   453     1 
  436   448     1 
  436   449     1 
  436   450     1 
  437   448     1 
  437   449     1 
  437   450     1 
  438   443     1 
  438   444     1 
  439   442     1 
  440   442     1 
  441   445     1 
  441   446     1 
  441   494     1 
  442   495     1 
  442   496     1 
  442   497     1 
  443   445     1 
  443   446     1 
  443   494     1 
  444   498     1 
  444   499     1 
  444   500     1 
  445   495     1 
  445   496     1 
  445   497     1 
  446   495     1 
  446   496     1 
  446   497     1 
  447   454     1 
  447   455     1 
  447   456     1 
  448   451     1 
  448   452     1 
  448   453     1 
  449   451     1 
  449   452     1 
  449   453     1 
  450   457     1 
  450   458     1 
  450   459     1 
  451   454     1 
  451   455     1 
  451   456     1 
  452   454     1 
  452   455     1 
  452   456     1 
  453   460     1 
  453   461     1 
  453   462     1 
  454   457     1 
  454   458     1 
  454   459     1 
  455   457     1 
  455   458     1 
  455   459     1 
  456   463     1 
  456   464     1 
  456   465     1 
  457   460     1 
  457   461     1 
  457   462     1 
  458   460     1 
  458   461     1 
  458   462     1 
  459   466     1 
  459   467     1 
  460   463     1 
  460   464     1 
  460   465     1 
  461   463     1 
  461   464     1 
  461   465     1 
  462   468     1 
  462   469     1 
  463   466     1 
  463   467     1 
  464   466     1 
  464   467     1 
  465   470     1 
  465   471     1 
  465   472     1 
  466   468     1 
  466   469     1 
  467   473     1 
  467   474     1 
  467   475     1 
  468   470     1 
  468   471     1 
  468   472     1 
  469   476     1 
  469   477     1 
  469   478     1 
  470   473     1 
  470   474     1 
  470   475     1 
  471   473     1 
  471   474     1 
  471   475     1 
  472   479     1 
  472   480     1 
  472   481     1 
  473   476     1 
  473   477     1 
  473   478     1 
  474   476     1 
  474   477     1 
  474   478     1 
  475   482     1 
  475   483     1 
  475   484     1 
  476   479     1 
  476   480     1 
  476   481     1 
  477   479     1 
  477   480     1 
  477   481     1 
  478   485     1 
  478   486     1 
  478   487     1 
  479   482     1 
  479   483     1 
  479   484     1 
  480   482     1 
  480   483     1 
  480   484     1 
  481   488     1 
  481   489     1 
  481   490     1 
  482   485     1 
  482   486     1 
  482   487     1 
  483   485     1 
  483   486     1 
  483   487     1 
  484   491     1 
  484   492     1 
  484   493     1 
  485   488     1 
  485   489     1 
  485   490     1 
  486   488     1 
  486   489     1 
  486   490     1 
  488   491     1 
  488   492     1 
  488   493     1 
  489   491     1 
  489   492     1 
  489   493     1 
  494   501     1 
  494   502     1 
  494   503     1 
  495   498     1 
  495   499     1 
  495   500     1 
  496   498     1 
  496   499     1 
  496   500     1 
  497   504     1 
  497   505     1 
  497   506     1 
  498   501     1 
  498   502     1 
  498   503     1 
  499   501     1 
  499   502     1 
  499   503     1 
  500   507     1 
  500   508     1 
  500   509     1 
  501   504     1 
  501   505     1 
  501   506     1 
  502   504     1 
  502   505     1 
  502   506     1 
  503   510     1 
  503   511     1 
  503   512     1 
  504   507     1 
  504   508     1 
  504   509     1 
  505   507     1 
  505   508     1 
  505   509     1 
  506   513     1 
  506   514     1 
  506   515     1 
  507   510     1 
  507   511     1 
  507   512     1 
  508   510     1 
  508   511     1 
  508   512     1 
  509   516     1 
  509   517     1 
  509   518     1 
  510   513     1 
  510   514     1 
  510   515     1 
  511   513     1 
  511   514     1 
  511   515     1 
  512   519     1 
  512   520     1 
  512   521     1 
  513   516     1 
  513   517     1 
  513   518     1 
  514   516     1 
  514   517     1 
  514   518     1 
  515   522     1 
  515   523     1 
  515   524     1 
  516   519     1 
  516   520     1 
  516   521     1 
  517   519     1 
  517   520     1 
  517   521     1 
  518   525     1 
  518   526     1 
  518   527     1 
  519   522     1 
  519   523     1 
  519   524     1 
  520   522     1 
  520   523     1 
  520   524     1 
  521   528     1 
  521   529     1 
  521   530     1 
  522   525     1 
  522   526     1 
  522   527     1 
  523   525     1 
  523   526     1 
  523   527     1 
  524   531     1 
  524   532     1 
  524   533     1 
  525   528     1 
  525   529     1 
  525   530     1 
  526   528     1 
  526   529     1 
  526   530     1 
  527   534     1 
  527   535     1 
  527   536     1 
  528   531     1 
  528   532     1 
  528   533     1 
  529   531     1 
  529   532     1 
  529   533     1 
  531   534     1 
  531   535     1 
  531   536     1 
  532   534     1 
  532   535     1 
  532   536     1 
  537   554     1 
  537   555     1 
  537   559     1 
  538   542     1 
  538   543     1 
  538   544     1 
  538   546     1 
  538   547     1 
  538   548     1 
  538   550     1 
  538   551     1 
  538   552     1 
  538   556     1 
  539   541     1 
  539   545     1 
  539   549     1 
  539   554     1 
  539   555     1 
  539   559     1 
  540   541     1 
  540   545     1 
  540   549     1 
  540   554     1 
  540   555     1 
  540   559     1 
  541   546     1 
  541   547     1 
  541   548     1 
  541   550     1 
  541   551     1 
  541   552     1 
  541   553     1 
  542   545     1 
  542   549     1 
  543   545     1 
  543   549     1 
  544   545     1 
  544   549     1 
  545   550     1 
  545   551     1 
  545   552     1 
  545   553     1 
  546   549     1 
  547   549     1 
  548   549     1 
  549   553     1 
  553   557     1 
  553   558     1 
  553   560     1 
  554   556     1 
  555   556     1 
  556   562     1 
  556   563     1 
  556   564     1 
  557   561     1 
  558   561     1 
  559   561     1 
  560   565     1 
  560   566     1 
  560   572     1 
  561   567     1 
  561   573     1 
  561   574     1 
  561   575     1 
  562   565     1 
  562   566     1 
  562   572     1 
  563   565     1 
  563   566     1 
  563   572     1 
  564   568     1 
  564   569     1 
  564   576     1 
  565   567     1 
  565   573     1 
  565   574     1 
  565   575     1 
  566   570     1 
  566   571     1 
  566   573     1 
  566   574     1 
  566   575     1 
  566   581     1 
  567   572     1 
  567   582     1 
  567   583     1 
  567   584     1 
  568   570     1 
  568   571     1 
  568   581     1 
  569   585     1 
  569   586     1 
  569   587     1 
  570   582     1 
  570   583     1 
  570   584     1 
  571   582     1 
  571   583     1 
  571   584     1 
  572   577     1 
  572   578     1 
  573   576     1 
  574   576     1 
  575   579     1 
  575   580     1 
  575   628     1 
  576   629     1 
  576   630     1 
  576   631     1 
  577   579     1 
  577   580     1 
  577   628     1 
  578   632     1 
  578   633     1 
  578   634     1 
  579   629     1 
  579   630     1 
  579   631     1 
  580   629     1 
  580   630     1 
  580   631     1 
  581   588     1 
  581   589     1 
  581   590     1 
  582   585     1 
  582   586     1 
  582   587     1 
  583   585     1 
  583   586     1 
  583   587     1 
  584   591     1 
  584   592     1 
  584   593     1 
  585   588     1 
  585   589     1 
  585   590     1 
  586   588     1 
  586   589     1 
  586   590     1 
  587   594     1 
  587   595     1 
  587   596     1 
  588   591     1 
  588   592     1 
  588   593     1 
  589   591     1 
  589   592     1 
  589   593     1 
  590   597     1 
  590   598     1 
  590   599     1 
  591   594     1 
  591   595     1 
  591   596     1 
  592   594     1 
  592   595     1 
  592   596     1 
  593   600     1 
  593   601     1 
  594   597     1 
  594   598     1 
  594   599     1 
  595   597     1 
  595   598     1 
  595   599     1 
  596   602     1 
  596   603     1 
  597   600     1 
  597   601     1 
  598   600     1 
  598   601     1 
  599   604     1 
  599   605     1 
  599   606     1 
  600   602     1 
  600   603     1 
  601   607     1 
  601   608     1 
  601   609     1 
  602   604     1 
  602   605     1 
  602   606     1 
  603   610     1 
  603   611     1 
  603   612     1 
  604   607     1 
  604   608     1 
  604   609     1 
  605   607     1 
  605   608     1 
  605   609     1 
  606   613     1 
  606   614     1 
  606   615     1 
  607   610     1 
  607   611     1 
  607   612     1 
  608   610     1 
  608   611     1 
  608   612     1 
  609   616     1 
  609   617     1 
  609   618     1 
  610   613     1 
  610   614     1 
  610   615     1 
  611   613     1 
  611   614     1 
  611   615     1 
  612   619     1 
  612   620     1 
  612   621     1 
  613   616     1 
  613   617     1 
  613   618     1 
  614   616     1 
  614   617     1 
  614   618     1 
  615   622     1 
  615   623     1 
  615   624     1 
  616   619     1 
  616   620     1 
  616   621     1 
  617   619     1 
  617   620     1 
  617   621     1 
  618   625     1 
  618   626     1 
  618   627     1 
  619   622     1 
  619   623     1 
  619   624     1 
  620   622     1 
  620   623     1 
  620   624     1 
  622   625     1 
  622   626     1 
  622   627     1 
  623   625     1 
  623   626     1 
  623   627     1 
  628   635     1 
  628   636     1 
  628   637     1 
  629   632     1 
  629   633     1 
  629   634     1 
  630   632     1 
  630   633     1 
  630   634     1 
  631   638     1 
  631   639     1 
  631   640     1 
  632   635     1 
  632   636     1 
  632   637     1 
  633   635     1 
  633   636     1 
  633   637     1 
  634   641     1 
  634   642     1 
  634   643     1 
  635   638     1 
  635   639     1 
  635   640     1 
  636   638     1 
  636   639     1 
  636   640     1 
  637   644     1 
  637   645     1 
  637   646     1 
  638   641     1 
  638   642     1 
  638   643     1 
  639   641     1 
  639   642     1 
  639   643     1 
  640   647     1 
  640   648     1 
  640   649     1 
  641   644     1 
  641   645     1 
  641   646     1 
  642   644     1 
  642   645     1 
  642   646     1 
  643   650     1 
  643   651     1 
  643   652     1 
  644   647     1 
  644   648     1 
  644   649     1 
  645   647     1 
  645   648     1 
  645   649     1 
  646   653     1 
  646   654     1 
  646   655     1 
  647   650     1 
  647   651     1 
  647   652     1 
  648   650     1 
  648   651     1 
  648   652     1 
  649   656     1 
  649   657     1 
  649   658     1 
  650   653     1 
  650   654     1 
  650   655     1 
  651   653     1 
  651   654     1 
  651   655     1 
  652   659     1 
  652   660     1 
  652   661     1 
  653   656     1 
  653   657     1 
  653   658     1 
  654   656     1 
  654   657     1 
  654   658     1 
  655   662     1 
  655   663     1 
  655   664     1 
  656   659     1 
  656   660     1 
  656   661     1 
  657   659     1 
  657   660     1 
  657   661     1 
  658   665     1 
  658   666     1 
  658   667     1 
  659   662     1 
  659   663     1 
  659   664     1 
  660   662     1 
  660   663     1 
  660   664     1 
  661   668     1 
  661   669     1 
  661   670     1 
  662   665     1 
  662   666     1 
  662   667     1 
  663   665     1 
  663   666     1 
  663   667     1 
  665   668     1 
  665   669     1 
  665   670     1 
  666   668     1 
  666   669     1 
  666   670     1 
  671   688     1 
  671   689     1 
  671   693     1 
  672   676     1 
  672   677     1 
  672   678     1 
  672   680     1 
  672   681     1 
  672   682     1 
  672   684     1 
  672   685     1 
  672   686     1 
  672   690     1 
  673   675     1 
  673   679     1 
  673   683     1 
  673   688     1 
  673   689     1 
  673   693     1 
  674   675     1 
  674   679     1 
  674   683     1 
  674   688     1 
  674   689     1 
  674   693     1 
  675   680     1 
  675   681     1 
  675   682     1 
  675   684     1 
  675   685     1 
  675   686     1 
  675   687     1 
  676   679     1 
  676   683     1 
  677   679     1 
  677   683     1 
  678   679     1 
  678   683     1 
  679   684     1 
  679   685     1 
  679   686     1 
  679   687     1 
  680   683     1 
  681   683     1 
  682   683     1 
  683   687     1 
  687   691     1 
  687   692     1 
  687   694     1 
  688   690     1 
  689   690     1 
  690   696     1 
  690   697     1 
  690   698     1 
  691   695     1 
  692   695     1 
  693   695     1 
  694   699     1 
  694   700     1 
  694   706     1 
  695   701     1 
  695   707     1 
  695   708     1 
  695   709     1 
  696   699     1 
  696   700     1 
  696   706     1 
  697   699     1 
  697   700     1 
  697   706     1 
  698   702     1 
  698   703     1 
  698   710     1 
  699   701     1 
  699   707     1 
  699   708     1 
  699   709     1 
  700   704     1 
  700   705     1 
  700   707     1 
  700   708     1 
  700   709     1 
  700   715     1 
  701   706     1 
  701   716     1 
  701   717     1 
  701   718     1 
  702   704     1 
  702   705     1 
  702   715     1 
  703   719     1 
  703   720     1 
  703   721     1 
  704   716     1 
  704   717     1 
  704   718     1 
  705   716     1 
  705   717     1 
  705   718     1 
  706   711     1 
  706   712     1 
  707   710     1 
  708   710     1 
  709   713     1 
  709   714     1 
  709   762     1 
  710   763     1 
  710   764     1 
  710   765     1 
  711   713     1 
  711   714     1 
  711   762     1 
  712   766     1 
  712   767     1 
  712   768     1 
  713   763     1 
  713   764     1 
  713   765     1 
  714   763     1 
  714   764     1 
  714   765     1 
  715   722     1 
  715   723     1 
  715   724     1 
  716   719     1 
  716   720     1 
  716   721     1 
  717   719     1 
  717   720     1 
  717   721     1 
  718   725     1 
  718   726     1 
  718   727     1 
  719   722     1 
  719   723     1 
  719   724     1 
  720   722     1 
  720   723     1 
  720   724     1 
  721   728     1 
  721   729     1 
  721   730     1 
  722   725     1 
  722   726     1 
  722   727     1 
  723   725     1 
  723   726     1 
  723   727     1 
  724   731     1 
  724   732     1 
  724   733     1 
  725   728     1 
  725   729     1 
  725   730     1 
  726   728     1 
  726   729     1 
  726   730     1 
  727   734     1 
  727   735     1 
  728   731     1 
  728   732     1 
  728   733     1 
  729   731     1 
  729   732     1 
  729   733     1 
  730   736     1 
  730   737     1 
  731   734     1 
  731   735     1 
  732   734     1 
  732   735     1 
  733   738     1 
  733   739     1 
  733   740     1 
  734   736     1 
  734   737     1 
  735   741     1 
  735   742     1 
  735   743     1 
  736   738     1 
  736   739     1 
  736   740     1 
  737   744     1 
  737   745     1 
  737   746     1 
  738   741     1 
  738   742     1 
  738   743     1 
  739   741     1 
  739   742     1 
  739   743     1 
  740   747     1 
  740   748     1 
  740   749     1 
  741   744     1 
  741   745     1 
  741   746     1 
  742   744     1 
  742   745     1 
  742   746     1 
  743   750     1 
  743   751     1 
  743   752     1 
  744   747     1 
  744   748     1 
  744   749     1 
  745   747     1 
  745   748     1 
  745   749     1 
  746   753     1 
  746   754     1 
  746   755     1 
  747   750     1 
  747   751     1 
  747   752     1 
  748   750     1 
  748   751     1 
  748   752     1 
  749   756     1 
  749   757     1 
  749   758     1 
  750   753     1 
  750   754     1 
  750   755     1 
  751   753     1 
  751   754     1 
  751   755     1 
  752   759     1 
  752   760     1 
  752   761     1 
  753   756     1 
  753   757     1 
  753   758     1 
  754   756     1 
  754   757     1 
  754   758     1 
  756   759     1 
  756   760     1 
  756   761     1 
  757   759     1 
  757   760     1 
  757   761     1 
  762   769     1 
  762   770     1 
  762   771     1 
  763   766     1 
  763   767     1 
  763   768     1 
  764   766     1 
  764   767     1 
  764   768     1 
  765   772     1 
  765   773     1 
  765   774     1 
  766   769     1 
  766   770     1 
  766   771     1 
  767   769     1 
  767   770     1 
  767   771     1 
  768   775     1 
  768   776     1 
  768   777     1 
  769   772     1 
  769   773     1 
  769   774     1 
  770   772     1 
  770   773     1 
  770   774     1 
  771   778     1 
  771   779     1 
  771   780     1 
  772   775     1 
  772   776     1 
  772   777     1 
  773   775     1 
  773   776     1 
  773   777     1 
  774   781     1 
  774   782     1 
  774   783     1 
  775   778     1 
  775   779     1 
  775   780     1 
  776   778     1 
  776   779     1 
  776   780     1 
  777   784     1 
  777   785     1 
  777   786     1 
  778   781     1 
  778   782     1 
  778   783     1 
  779   781     1 
  779   782     1 
  779   783     1 
  780   787     1 
  780   788     1 
  780   789     1 
  781   784     1 
  781   785     1 
  781   786     1 
  782   784     1 
  782   785     1 
  782   786     1 
  783   790     1 
  783   791     1 
  783   792     1 
  784   787     1 
  784   788     1 
  784   789     1 
  785   787     1 
  785   788     1 
  785   789     1 
  786   793     1 
  786   794     1 
  786   795     1 
  787   790     1 
  787   791     1 
  787   792     1 
  788   790     1 
  788   791     1 
  788   792     1 
  789   796     1 
  789   797     1 
  789   798     1 
  790   793     1 
  790   794     1 
  790   795     1 
  791   793     1 
  791   794     1 
  791   795     1 
  792   799     1 
  792   800     1 
  792   801     1 
  793   796     1 
  793   797     1 
  793   798     1 
  794   796     1 
  794   797     1 
  794   798     1 
  795   802     1 
  795   803     1 
  795   804     1 
  796   799     1 
  796   800     1 
  796   801     1 
  797   799     1 
  797   800     1 
  797   801     1 
  799   802     1 
  799   803     1 
  799   804     1 
  800   802     1 
  800   803     1 
  800   804     1 
  805   822     1 
  805   823     1 
  805   827     1 
  806   810     1 
  806   811     1 
  806   812     1 
  806   814     1 
  806   815     1 
  806   816     1 
  806   818     1 
  806   819     1 
  806   820     1 
  806   824     1 
  807   809     1 
  807   813     1 
  807   817     1 
  807   822     1 
  807   823     1 
  807   827     1 
  808   809     1 
  808   813     1 
  808   817     1 
  808   822     1 
  808   823     1 
  808   827     1 
  809   814     1 
  809   815     1 
  809   816     1 
  809   818     1 
  809   819     1 
  809   820     1 
  809   821     1 
  810   813     1 
  810   817     1 
  811   813     1 
  811   817     1 
  812   813     1 
  812   817     1 
  813   818     1 
  813   819     1 
  813   820     1 
  813   821     1 
  814   817     1 
  815   817     1 
  816   817     1 
  817   821     1 
  821   825     1 
  821   826     1 
  821   828     1 
  822   824     1 
  823   824     1 
  824   830     1 
  824   831     1 
  824   832     1 
  825   829     1 
  826   829     1 
  827   829     1 
  828   833     1 
  828   834     1 
  828   840     1 
  829   835     1 
  829   841     1 
  829   842     1 
  829   843     1 
  830   833     1 
  830   834     1 
  830   840     1 
  831   833     1 
  831   834     1 
  831   840     1 
  832   836     1 
  832   837     1 
  832   844     1 
  833   835     1 
  833   841     1 
  833   842     1 
  833   843     1 
  834   838     1 
  834   839     1 
  834   841     1 
  834   842     1 
  834   843     1 
  834   849     1 
  835   840     1 
  835   850     1 
  835   851     1 
  835   852     1 
  836   838     1 
  836   839     1 
  836   849     1 
  837   853     1 
  837   854     1 
  837   855     1 
  838   850     1 
  838   851     1 
  838   852     1 
  839   850     1 
  839   851     1 
  839   852     1 
  840   845     1 
  840   846     1 
  841   844     1 
  842   844     1 
  843   847     1 
  843   848     1 
  843   896     1 
  844   897     1 
  844   898     1 
  844   899     1 
  845   847     1 
  845   848     1 
  845   896     1 
  846   900     1 
  846   901     1 
  846   902     1 
  847   897     1 
  847   898     1 
  847   899     1 
  848   897     1 
  848   898     1 
  848   899     1 
  849   856     1 
  849   857     1 
  849   858     1 
  850   853     1 
  850   854     1 
  850   855     1 
  851   853     1 
  851   854     1 
  851   855     1 
  852   859     1 
  852   860     1 
  852   861     1 
  853   856     1 
  853   857     1 
  853   858     1 
  854   856     1 
  854   857     1 
  854   858     1 
  855   862     1 
  855   863     1 
  855   864     1 
  856   859     1 
  856   860     1 
  856   861     1 
  857   859     1 
  857   860     1 
  857   861     1 
  858   865     1 
  858   866     1 
  858   867     1 
  859   862     1 
  859   863     1 
  859   864     1 
  860   862     1 
  860   863     1 
  860   864     1 
  861   868     1 
  861   869     1 
  862   865     1 
  862   866     1 
  862   867     1 
  863   865     1 
  863   866     1 
  863   867     1 
  864   870     1 
  864   871     1 
  865   868     1 
  865   869     1 
  866   868     1 
  866   869     1 
  867   872     1 
  867   873     1 
  867   874     1 
  868   870     1 
  868   871     1 
  869   875     1 
  869   876     1 
  869   877     1 
  870   872     1 
  870   873     1 
  870   874     1 
  871   878     1 
  871   879     1 
  871   880     1 
  872   875     1 
  872   876     1 
  872   877     1 
  873   875     1 
  873   876     1 
  873   877     1 
  874   881     1 
  874   882     1 
  874   883     1 
  875   878     1 
  875   879     1 
  875   880     1 
  876   878     1 
  876   879     1 
  876   880     1 
  877   884     1 
  877   885     1 
  877   886     1 
  878   881     1 
  878   882     1 
  878   883     1 
  879   881     1 
  879   882     1 
  879   883     1 
  880   887     1 
  880   888     1 
  880   889     1 
  881   884     1 
  881   885     1 
  881   886     1 
  882   884     1 
  882   885     1 
  882   886     1 
  883   890     1 
  883   891     1 
  883   892     1 
  884   887     1 
  884   888     1 
  884   889     1 
  885   887     1 
  885   888     1 
  885   889     1 
  886   893     1 
  886   894     1 
  886   895     1 
  887   890     1 
  887   891     1 
  887   892     1 
  888   890     1 
  888   891     1 
  888   892     1 
  890   893     1 
  890   894     1 
  890   895     1 
  891   893     1 
  891   894     1 
  891   895     1 
  896   903     1 
  896   904     1 
  896   905     1 
  897   900     1 
  897   901     1 
  897   902     1 
  898   900     1 
  898   901     1 
  898   902     1 
  899   906     1 
  899   907     1 
  899   908     1 
  900   903     1 
  900   904     1 
  900   905     1 
  901   903     1 
  901   904     1 
  901   905     1 
  902   909     1 
  902   910     1 
  902   911     1 
  903   906     1 
  903   907     1 
  903   908     1 
  904   906     1 
  904   907     1 
  904   908     1 
  905   912     1 
  905   913     1 
  905   914     1 
  906   909     1 
  906   910     1 
  906   911     1 
  907   909     1 
  907   910     1 
  907   911     1 
  908   915     1 
  908   916     1 
  908   917     1 
  909   912     1 
  909   913     1 
  909   914     1 
  910   912     1 
  910   913     1 
  910   914     1 
  911   918     1 
  911   919     1 
  911   920     1 
  912   915     1 
  912   916     1 
  912   917     1 
  913   915     1 
  913   916     1 
  913   917     1 
  914   921     1 
  914   922     1 
  914   923     1 
  915   918     1 
  915   919     1 
  915   920     1 
  916   918     1 
  916   919     1 
  916   920     1 
  917   924     1 
  917   925     1 
  917   926     1 
  918   921     1 
  918   922     1 
  918   923     1 
  919   921     1 
  919   922     1 
  919   923     1 
  920   927     1 
  920   928     1 
  920   929     1 
  921   924     1 
  921   925     1 
  921   926     1 
  922   924     1 
  922   925     1 
  922   926     1 
  923   930     1 
  923   931     1 
  923   932     1 
  924   927     1 
  924   928     1 
  924   929     1 
  925   927     1 
  925   928     1 
  925   929     1 
  926   933     1 
  926   934     1 
  926   935     1 
  927   930     1 
  927   931     1 
  927   932     1 
  928   930     1 
  928   931     1 
  928   932     1 
  929   936     1 
  929   937     1 
  929   938     1 
  930   933     1 
  930   934     1 
  930   935     1 
  931   933     1 
  931   934     1 
  931   935     1 
  933   936     1 
  933   937     1 
  933   938     1 
  934   936     1 
  934   937     1 
  934   938     1 
  939   956     1 
  939   957     1 
  939   961     1 
  940   944     1 
  940   945     1 
  940   946     1 
  940   948     1 
  940   949     1 
  940   950     1 
  940   952     1 
  940   953     1 
  940   954     1 
  940   958     1 
  941   943     1 
  941   947     1 
  941   951     1 
  941   956     1 
  941   957     1 
  941   961     1 
  942   943     1 
  942   947     1 
  942   951     1 
  942   956     1 
  942   957     1 
  942   961     1 
  943   948     1 
  943   949     1 
  943   950     1 
  943   952     1 
  943   953     1 
  943   954     1 
  943   955     1 
  944   947     1 
  944   951     1 
  945   947     1 
  945   951     1 
  946   947     1 
  946   951     1 
  947   952     1 
  947   953     1 
  947   954     1 
  947   955     1 
  948   951     1 
  949   951     1 
  950   951     1 
  951   955     1 
  955   959     1 
  955   960     1 
  955   962     1 
  956   958     1 
  957   958     1 
  958   964     1 
  958   965     1 
  958   966     1 
  959   963     1 
  960   963     1 
  961   963     1 
  962   967     1 
  962   968     1 
  962   974     1 
  963   969     1 
  963   975     1 
  963   976     1 
  963   977     1 
  964   967     1 
  964   968     1 
  964   974     1 
  965   967     1 
  965   968     1 
  965   974     1 
  966   970     1 
  966   971     1 
  966   978     1 
  967   969     1 
  967   975     1 
  967   976     1 
  967   977     1 
  968   972     1 
  968   973     1 
  968   975     1 
  968   976     1 
  968   977     1 
  968   983     1 
  969   974     1 
  969   984     1 
  969   985     1 
  969   986     1 
  970   972     1 
  970   973     1 
  970   983     1 
  971   987     1 
  971   988     1 
  971   989     1 
  972   984     1 
  972   985     1 
  972   986     1 
  973   984     1 
  973   985     1 
  973   986     1 
  974   979     1 
  974   980     1 
  975   978     1 
  976   978     1 
  977   981     1 
  977   982     1 
  977  1030     1 
  978  1031     1 
  978  1032     1 
  978  1033     1 
  979   981     1 
  979   982     1 
  979  1030     1 
  980  1034     1 
  980  1035     1 
  980  1036     1 
  981  1031     1 
  981  1032     1 
  981  1033     1 
  982  1031     1 
  982  1032     1 
  982  1033     1 
  983   990     1 
  983   991     1 
  983   992     1 
  984   987     1 
  984   988     1 
  984   989     1 
  985   987     1 
  985   988     1 
  985   989     1 
  986   993     1 
  986   994     1 
  986   995     1 
  987   990     1 
  987   991     1 
  987   992     1 
  988   990     1 
  988   991     1 
  988   992     1 
  989   996     1 
  989   997     1 
  989   998     1 
  990   993     1 
  990   994     1 
  990   995     1 
  991   993     1 
  991   994     1 
  991   995     1 
  992   999     1 
  992  1000     1 
  992  1001     1 
  993   996     1 
  993   997     1 
  993   998     1 
  994   996     1 
  994   997     1 
  994   998     1 
  995  1002     1 
  995  1003     1 
  996   999     1 
  996  1000     1 
  996  1001     1 
  997   999     1 
  997  1000     1 
  997  1001     1 
  998  1004     1 
  998  1005     1 
  999  1002     1 
  999  1003     1 
 1000  1002     1 
 1000  1003     1 
 1001  1006     1 
 1001  1007     1 
 1001  1008     1 
 1002  1004     1 
 1002  1005     1 
 1003  1009     1 
 1003  1010     1 
 1003  1011     1 
 1004  1006     1 
 1004  1007     1 
 1004  1008     1 
 1005  1012     1 
 1005  1013     1 
 1005  1014     1 
 1006  1009     1 
 1006  1010     1 
 1006  1011     1 
 1007  1009     1 
 1007  1010     1 
 1007  1011     1 
 1008  1015     1 
 1008  1016     1 
 1008  1017     1 
 1009  1012     1 
 1009  1013     1 
 1009  1014     1 
 1010  1012     1 
 1010  1013     1 
 1010  1014     1 
 1011  1018     1 
 1011  1019     1 
 1011  1020     1 
 1012  1015     1 
 1012  1016     1 
 1012  1017     1 
 1013  1015     1 
 1013  1016     1 
 1013  1017     1 
 1014  1021     1 
 1014  1022     1 
 1014  1023     1 
 1015  1018     1 
 1015  1019     1 
 1015  1020     1 
 1016  1018     1 
 1016  1019     1 
 1016  1020     1 
 1017  1024     1 
 1017  1025     1 
 1017  1026     1 
 1018  1021     1 
 1018  1022     1 
 1018  1023     1 
 1019  1021     1 
 1019  1022     1 
 1019  1023     1 
 1020  1027     1 
 1020  1028     1 
 1020  1029     1 
 1021  1024     1 
 1021  1025     1 
 1021  1026     1 
 1022  1024     1 
 1022  1025     1 
 1022  1026     1 
 1024  1027     1 
 1024  1028     1 
 1024  1029     1 
 1025  1027     1 
 1025  1028     1 
 1025  1029     1 
 1030  1037     1 
 1030  1038     1 
 1030  1039     1 
 1031  1034     1 
 1031  1035     1 
 1031  1036     1 
 1032  1034     1 
 1032  1035     1 
 1032  1036     1 
 1033  1040     1 
 1033  1041     1 
 1033  1042     1 
 1034  1037     1 
 1034  1038     1 
 1034  1039     1 
 1035  1037     1 
 1035  1038     1 
 1035  1039     1 
 1036  1043     1 
 1036  1044     1 
 1036  1045     1 
 1037  1040     1 
 1037  1041     1 
 1037  1042     1 
 1038  1040     1 
 1038  1041     1 
 1038  1042     1 
 1039  1046     1 
 1039  1047     1 
 1039  1048     1 
 1040  1043     1 
 1040  1044     1 
 1040  1045     1 
 1041  1043     1 
 1041  1044     1 
 1041  1045     1 
 1042  1049     1 
 1042  1050     1 
 1042  1051     1 
 1043  1046     1 
 1043  1047     1 
 1043  1048     1 
 1044  1046     1 
 1044  1047     1 
 1044  1048     1 
 1045  1052     1 
 1045  1053     1 
 1045  1054     1 
 1046  1049     1 
 1046  1050     1 
 1046  1051     1 
 1047  1049     1 
 1047  1050     1 
 1047  1051     1 
 1048  1055     1 
 1048  1056     1 
 1048  1057     1 
 1049  1052     1 
 1049  1053     1 
 1049  1054     1 
 1050  1052     1 
 1050  1053     1 
 1050  1054     1 
 1051  1058     1 
 1051  1059     1 
 1051  1060     1 
 1052  1055     1 
 1052  1056     1 
 1052  1057     1 
 1053  1055     1 
 1053  1056     1 
 1053  1057     1 
 1054  1061     1 
 1054  1062     1 
 1054  1063     1 
 1055  1058     1 
 1055  1059     1 
 1055  1060     1 
 1056  1058     1 
 1056  1059     1 
 1056  1060     1 
 1057  1064     1 
 1057  1065     1 
 1057  1066     1 
 1058  1061     1 
 1058  1062     1 
 1058  1063     1 
 1059  1061     1 
 1059  1062     1 
 1059  1063     1 
 1060  1067     1 
 1060  1068     1 
 1060  1069     1 
 1061  1064     1 
 1061  1065     1 
 1061  1066     1 
 1062  1064     1 
 1062  1065     1 
 1062  1066     1 
 1063  1070     1 
 1063  1071     1 
 1063  1072     1 
 1064  1067     1 
 1064  1068     1 
 1064  1069     1 
 1065  1067     1 
 1065  1068     1 
 1065  1069     1 
 1067  1070     1 
 1067  1071     1 
 1067  1072     1 
 1068  1070     1 
 1068  1071     1 
 1068  1072     1 
 1073  1090     1 
 1073  1091     1 
 1073  1095     1 
 1074  1078     1 
 1074  1079     1 
 1074  1080     1 
 1074  1082     1 
 1074  1083     1 
 1074  1084     1 
 1074  1086     1 
 1074  1087     1 
 1074  1088     1 
 1074  1092     1 
 1075  1077     1 
 1075  1081     1 
 1075  1085     1 
 1075  1090     1 
 1075  1091     1 
 1075  1095     1 
 1076  1077     1 
 1076  1081     1 
 1076  1085     1 
 1076  1090     1 
 1076  1091     1 
 1076  1095     1 
 1077  1082     1 
 1077  1083     1 
 1077  1084     1 
 1077  1086     1 
 1077  1087     1 
 1077  1088     1 
 1077  1089     1 
 1078  1081     1 
 1078  1085     1 
 1079  1081     1 
 1079  1085     1 
 1080  1081     1 
 1080  1085     1 
 1081  1086     1 
 1081  1087     1 
 1081  1088     1 
 1081  1089     1 
 1082  1085     1 
 1083  1085     1 
 1084  1085     1 
 1085  1089     1 
 1089  1093     1 
 1089  1094     1 
 1089  1096     1 
 1090  1092     1 
 1091  1092     1 
 1092  1098     1 
 1092  1099     1 
 1092  1100     1 
 1093  1097     1 
 1094  1097     1 
 1095  1097     1 
 1096  1101     1 
 1096  1102     1 
 1096  1108     1 
 1097  1103     1 
 1097  1109     1 
 1097  1110     1 
 1097  1111     1 
 1098  1101     1 
 1098  1102     1 
 1098  1108     1 
 1099  1101     1 
 1099  1102     1 
 1099  1108     1 
 1100  1104     1 
 1100  1105     1 
 1100  1112     1 
 1101  1103     1 
 1101  1109     1 
 1101  1110     1 
 1101  1111     1 
 1102  1106     1 
 1102  1107     1 
 1102  1109     1 
 1102  1110     1 
 1102  1111     1 
 1102  1117     1 
 1103  1108     1 
 1103  1118     1 
 1103  1119     1 
 1103  1120     1 
 1104  1106     1 
 1104  1107     1 
 1104  1117     1 
 1105  1121     1 
 1105  1122     1 
 1105  1123     1 
 1106  1118     1 
 1106  1119     1 
 1106  1120     1 
 1107  1118     1 
 1107  1119     1 
 1107  1120     1 
 1108  1113     1 
 1108  1114     1 
 1109  1112     1 
 1110  1112     1 
 1111  1115     1 
 1111  1116     1 
 1111  1164     1 
 1112  1165     1 
 1112  1166     1 
 1112  1167     1 
 1113  1115     1 
 1113  1116     1 
 1113  1164     1 
 1114  1168     1 
 1114  1169     1 
 1114  1170     1 
 1115  1165     1 
 1115  1166     1 
 1115  1167     1 
 1116  1165     1 
 1116  1166     1 
 1116  1167     1 
 1117  1124     1 
 1117  1125     1 
 1117  1126     1 
 1118  1121     1 
 1118  1122     1 
 1118  1123     1 
 1119  1121     1 
 1119  1122     1 
 1119  1123     1 
 1120  1127     1 
 1120  1128     1 
 1120  1129     1 
 1121  1124     1 
 1121  1125     1 
 1121  1126     1 
 1122  1124     1 
 1122  1125     1 
 1122  1126     1 
 1123  1130     1 
 1123  1131     1 
 1123  1132     1 
 1124  1127     1 
 1124  1128     1 
 1124  1129     1 
 1125  1127     1 
 1125  1128     1 
 1125  1129     1 
 1126  1133     1 
 1126  1134     1 
 1126  1135     1 
 1127  1130     1 
 1127  1131     1 
 1127  1132     1 
 1128  1130     1 
 1128  1131     1 
 1128  1132     1 
 1129  1136     1 
 1129  1137     1 
 1130  1133     1 
 1130  1134     1 
 1130  1135     1 
 1131  1133     1 
 1131  1134     1 
 1131  1135     1 
 1132  1138     1 
 1132  1139     1 
 1133  1136     1 
 1133  1137     1 
 1134  1136     1 
 1134  1137     1 
 1135  1140     1 
 1135  1141     1 
 1135  1142     1 
 1136  1138     1 
 1136  1139     1 
 1137  1143     1 
 1137  1144     1 
 1137  1145     1 
 1138  1140     1 
 1138  1141     1 
 1138  1142     1 
 1139  1146     1 
 1139  1147     1 
 1139  1148     1 
 1140  1143     1 
 1140  1144     1 
 1140  1145     1 
 1141  1143     1 
 1141  1144     1 
 1141  1145     1 
 1142  1149     1 
 1142  1150     1 
 1142  1151     1 
 1143  1146     1 
 1143  1147     1 
 1143  1148     1 
 1144  1146     1 
 1144  1147     1 
 1144  1148     1 
 1145  1152     1 
 1145  1153     1 
 1145  1154     1 
 1146  1149     1 
 1146  1150     1 
 1146  1151     1 
 1147  1149     1 
 1147  1150     1 
 1147  1151     1 
 1148  1155     1 
 1148  1156     1 
 1148  1157     1 
 1149  1152     1 
 1149  1153     1 
 1149  1154     1 
 1150  1152     1 
 1150  1153     1 
 1150  1154     1 
 1151  1158     1 
 1151  1159     1 
 1151  1160     1 
 1152  1155     1 
 1152  1156     1 
 1152  1157     1 
 1153  1155     1 
 1153  1156     1 
 1153  1157     1 
 1154  1161     1 
 1154  1162     1 
 1154  1163     1 
 1155  1158     1 
 1155  1159     1 
 1155  1160     1 
 1156  1158     1 
 1156  1159     1 
 1156  1160     1 
 1158  1161     1 
 1158  1162     1 
 1158  1163     1 
 1159  1161     1 
 1159  1162     1 
 1159  1163     1 
 1164  1171     1 
 1164  1172     1 
 1164  1173     1 
 1165  1168     1 
 1165  1169     1 
 1165  1170     1 
 1166  1168     1 
 1166  1169     1 
 1166  1170     1 
 1167  1174     1 
 1167  1175     1 
 1167  1176     1 
 1168  1171     1 
 1168  1172     1 
 1168  1173     1 
 1169  1171     1 
 1169  1172     1 
 1169  1173     1 
 1170  1177     1 
 1170  1178     1 
 1170  1179     1 
 1171  1174     1 
 1171  1175     1 
 1171  1176     1 
 1172  1174     1 
 1172  1175     1 
 1172  1176     1 
 1173  1180     1 
 1173  1181     1 
 1173  1182     1 
 1174  1177     1 
 1174  1178     1 
 1174  1179     1 
 1175  1177     1 
 1175  1178     1 
 1175  1179     1 
 1176  1183     1 
 1176  1184     1 
 1176  1185     1 
 1177  1180     1 
 1177  1181     1 
 1177  1182     1 
 1178  1180     1 
 1178  1181     1 
 1178  1182     1 
 1179  1186     1 
 1179  1187     1 
 1179  1188     1 
 1180  1183     1 
 1180  1184     1 
 1180  1185     1 
 1181  1183     1 
 1181  1184     1 
 1181  1185     1 
 1182  1189     1 
 1182  1190     1 
 1182  1191     1 
 1183  1186     1 
 1183  1187     1 
 1183  1188     1 
 1184  1186     1 
 1184  1187     1 
 1184  1188     1 
 1185  1192     1 
 1185  1193     1 
 1185  1194     1 
 1186  1189     1 
 1186  1190     1 
 1186  1191     1 
 1187  1189     1 
 1187  1190     1 
 1187  1191     1 
 1188  1195     1 
 1188  1196     1 
 1188  1197     1 
 1189  1192     1 
 1189  1193     1 
 1189  1194     1 
 1190  1192     1 
 1190  1193     1 
 1190  1194     1 
 1191  1198     1 
 1191  1199     1 
 1191  1200     1 
 1192  1195     1 
 1192  1196     1 
 1192  1197     1 
 1193  1195     1 
 1193  1196     1 
 1193  1197     1 
 1194  1201     1 
 1194  1202     1 
 1194  1203     1 
 1195  1198     1 
 1195  1199     1 
 1195  1200     1 
 1196  1198     1 
 1196  1199     1 
 1196  1200     1 
 1197  1204     1 
 1197  1205     1 
 1197  1206     1 
 1198  1201     1 
 1198  1202     1 
 1198  1203     1 
 1199  1201     1 
 1199  1202     1 
 1199  1203     1 
 1201  1204     1 
 1201  1205     1 
 1201  1206     1 
 1202  1204     1 
 1202  1205     1 
 1202  1206     1 
 1207  1224     1 
 1207  1225     1 
 1207  1229     1 
 1208  1212     1 
 1208  1213     1 
 1208  1214     1 
 1208  1216     1 
 1208  1217     1 
 1208  1218     1 
 1208  1220     1 
 1208  1221     1 
 1208  1222     1 
 1208  1226     1 
 1209  1211     1 
 1209  1215     1 
 1209  1219     1 
 1209  1224     1 
 1209  1225     1 
 1209  1229     1 
 1210  1211     1 
 1210  1215     1 
 1210  1219     1 
 1210  1224     1 
 1210  1225     1 
 1210  1229     1 
 1211  1216     1 
 1211  1217     1 
 1211  1218     1 
 1211  1220     1 
 1211  1221     1 
 1211  1222     1 
 1211  1223     1 
 1212  1215     1 
 1212  1219     1 
 1213  1215     1 
 1213  1219     1 
 1214  1215     1 
 1214  1219     1 
 1215  1220     1 
 1215  1221     1 
 1215  1222     1 
 1215  1223     1 
 1216  1219     1 
 1217  1219     1 
 1218  1219     1 
 1219  1223     1 
 1223  1227     1 
 1223  1228     1 
 1223  1230     1 
 1224  1226     1 
 1225  1226     1 
 1226  1232     1 
 1226  1233     1 
 1226  1234     1 
 1227  1231     1 
 1228  1231     1 
 1229  1231     1 
 1230  1235     1 
 1230  1236     1 
 1230  1242     1 
 1231  1237     1 
 1231  1243     1 
 1231  1244     1 
 1231  1245     1 
 1232  1235     1 
 1232  1236     1 
 1232  1242     1 
 1233  1235     1 
 1233  1236     1 
 1233  1242     1 
 1234  1238     1 
 1234  1239     1 
 1234  1246     1 
 1235  1237     1 
 1235  1243     1 
 1235  1244     1 
 1235  1245     1 
 1236  1240     1 
 1236  1241     1 
 1236  1243     1 
 1236  1244     1 
 1236  1245     1 
 1236  1251     1 
 1237  1242     1 
 1237  1252     1 
 1237  1253     1 
 1237  1254     1 
 1238  1240     1 
 1238  1241     1 
 1238  1251     1 
 1239  1255     1 
 1239  1256     1 
 1239  1257     1 
 1240  1252     1 
 1240  1253     1 
 1240  1254     1 
 1241  1252     1 
 1241  1253     1 
 1241  1254     1 
 1242  1247     1 
 1242  1248     1 
 1243  1246     1 
 1244  1246     1 
 1245  1249     1 
 1245  1250     1 
 1245  1298     1 
 1246  1299     1 
 1246  1300     1 
 1246  1301     1 
 1247  1249     1 
 1247  1250     1 
 1247  1298     1 
 1248  1302     1 
 1248  1303     1 
 1248  1304     1 
 1249  1299     1 
 1249  1300     1 
 1249  1301     1 
 1250  1299     1 
 1250  1300     1 
 1250  1301     1 
 1251  1258     1 
 1251  1259     1 
 1251  1260     1 
 1252  1255     1 
 1252  1256     1 
 1252  1257     1 
 1253  1255     1 
 1253  1256     1 
 1253  1257     1 
 1254  1261     1 
 1254  1262     1 
 1254  1263     1 
 1255  1258     1 
 1255  1259     1 
 1255  1260     1 
 1256  1258     1 
 1256  1259     1 
 1256  1260     1 
 1257  1264     1 
 1257  1265     1 
 1257  1266     1 
 1258  1261     1 
 1258  1262     1 
 1258  1263     1 
 1259  1261     1 
 1259  1262     1 
 1259  1263     1 
 1260  1267     1 
 1260  1268     1 
 1260  1269     1 
 1261  1264     1 
 1261  1265     1 
 1261  1266     1 
 1262  1264     1 
 1262  1265     1 
 1262  1266     1 
 1263  1270     1 
 1263  1271     1 
 1264  1267     1 
 1264  1268     1 
 1264  1269     1 
 1265  1267     1 
 1265  1268     1 
 1265  1269     1 
 1266  1272     1 
 1266  1273     1 
 1267  1270     1 
 1267  1271     1 
 1268  1270     1 
 1268  1271     1 
 1269  1274     1 
 1269  1275     1 
 1269  1276     1 
 1270  1272     1 
 1270  1273     1 
 1271  1277     1 
 1271  1278     1 
 1271  1279     1 
 1272  1274     1 
 1272  1275     1 
 1272  1276     1 
 1273  1280     1 
 1273  1281     1 
 1273  1282     1 
 1274  1277     1 
 1274  1278     1 
 1274  1279     1 
 1275  1277     1 
 1275  1278     1 
 1275  1279     1 
 1276  1283     1 
 1276  1284     1 
 1276  1285     1 
 1277  1280     1 
 1277  1281     1 
 1277  1282     1 
 1278  1280     1 
 1278  1281     1 
 1278  1282     1 
 1279  1286     1 
 1279  1287     1 
 1279  1288     1 
 1280  1283     1 
 1280  1284     1 
 1280  1285     1 
 1281  1283     1 
 1281  1284     1 
 1281  1285     1 
 1282  1289     1 
 1282  1290     1 
 1282  1291     1 
 1283  1286     1 
 1283  1287     1 
 1283  1288     1 
 1284  1286     1 
 1284  1287     1 
 1284  1288     1 
 1285  1292     1 
 1285  1293     1 
 1285  1294     1 
 1286  1289     1 
 1286  1290     1 
 1286  1291     1 
 1287  1289     1 
 1287  1290     1 
 1287  1291     1 
 1288  1295     1 
 1288  1296     1 
 1288  1297     1 
 1289  1292     1 
 1289  1293     1 
 1289  1294     1 
 1290  1292     1 
 1290  1293     1 
 1290  1294     1 
 1292  1295     1 
 1292  1296     1 
 1292  1297     1 
 1293  1295     1 
 1293  1296     1 
 1293  1297     1 
 1298  1305     1 
 1298  1306     1 
 1298  1307     1 
 1299  1302     1 
 1299  1303     1 
 1299  1304     1 
 1300  1302     1 
 1300  1303     1 
 1300  1304     1 
 1301  1308     1 
 1301  1309     1 
 1301  1310     1 
 1302  1305     1 
 1302  1306     1 
 1302  1307     1 
 1303  1305     1 
 1303  1306     1 
 1303  1307     1 
 1304  1311     1 
 1304  1312     1 
 1304  1313     1 
 1305  1308     1 
 1305  1309     1 
 1305  1310     1 
 1306  1308     1 
 1306  1309     1 
 1306  1310     1 
 1307  1314     1 
 1307  1315     1 
 1307  1316     1 
 1308  1311     1 
 1308  1312     1 
 1308  1313     1 
 1309  1311     1 
 1309  1312     1 
 1309  1313     1 
 1310  1317     1 
 1310  1318     1 
 1310  1319     1 
 1311  1314     1 
 1311  1315     1 
 1311  1316     1 
 1312  1314     1 
 1312  1315     1 
 1312  1316     1 
 1313  1320     1 
 1313  1321     1 
 1313  1322     1 
 1314  1317     1 
 1314  1318     1 
 1314  1319     1 
 1315  1317     1 
 1315  1318     1 
 1315  1319     1 
 1316  1323     1 
 1316  1324     1 
 1316  1325     1 
 1317  1320     1 
 1317  1321     1 
 1317  1322     1 
 1318  1320     1 
 1318  1321     1 
 1318  1322     1 
 1319  1326     1 
 1319  1327     1 
 1319  1328     1 
 1320  1323     1 
 1320  1324     1 
 1320  1325     1 
 1321  1323     1 
 1321  1324     1 
 1321  1325     1 
 1322  1329     1 
 1322  1330     1 
 1322  1331     1 
 1323  1326     1 
 1323  1327     1 
 1323  1328     1 
 1324  1326     1 
 1324  1327     1 
 1324  1328     1 
 1325  1332     1 
 1325  1333     1 
 1325  1334     1 
 1326  1329     1 
 1326  1330     1 
 1326  1331     1 
 1327  1329     1 
 1327  1330     1 
 1327  1331     1 
 1328  1335     1 
 1328  1336     1 
 1328  1337     1 
 1329  1332     1 
 1329  1333     1 
 1329  1334     1 
 1330  1332     1 
 1330  1333     1 
 1330  1334     1 
 1331  1338     1 
 1331  1339     1 
 1331  1340     1 
 1332  1335     1 
 1332  1336     1 
 1332  1337     1 
 1333  1335     1 
 1333  1336     1 
 1333  1337     1 
 1335  1338     1 
 1335  1339     1 
 1335  1340     1 
 1336  1338     1 
 1336  1339     1 
 1336  1340     1 
 1341  1358     1 
 1341  1359     1 
 1341  1363     1 
 1342  1346     1 
 1342  1347     1 
 1342  1348     1 
 1342  1350     1 
 1342  1351     1 
 1342  1352     1 
 1342  1354     1 
 1342  1355     1 
 1342  1356     1 
 1342  1360     1 
 1343  1345     1 
 1343  1349     1 
 1343  1353     1 
 1343  1358     1 
 1343  1359     1 
 1343  1363     1 
 1344  1345     1 
 1344  1349     1 
 1344  1353     1 
 1344  1358     1 
 1344  1359     1 
 1344  1363     1 
 1345  1350     1 
 1345  1351     1 
 1345  1352     1 
 1345  1354     1 
 1345  1355     1 
 1345  1356     1 
 1345  1357     1 
 1346  1349     1 
 1346  1353     1 
 1347  1349     1 
 1347  1353     1 
 1348  1349     1 
 1348  1353     1 
 1349  1354     1 
 1349  1355     1 
 1349  1356     1 
 1349  1357     1 
 1350  1353     1 
 1351  1353     1 
 1352  1353     1 
 1353  1357     1 
 1357  1361     1 
 1357  1362     1 
 1357  1364     1 
 1358  1360     1 
 1359  1360     1 
 1360  1366     1 
 1360  1367     1 
 1360  1368     1 
 1361  1365     1 
 1362  1365     1 
 1363  1365     1 
 1364  1369     1 
 1364  1370     1 
 1364  1376     1 
 1365  1371     1 
 1365  1377     1 
 1365  1378     1 
 1365  1379     1 
 1366  1369     1 
 1366  1370     1 
 1366  1376     1 
 1367  1369     1 
 1367  1370     1 
 1367  1376     1 
 1368  1372     1 
 1368  1373     1 
 1368  1380     1 
 1369  1371     1 
 1369  1377     1 
 1369  1378     1 
 1369  1379     1 
 1370  1374     1 
 1370  1375     1 
 1370  1377     1 
 1370  1378     1 
 1370  1379     1 
 1370  1385     1 
 1371  1376     1 
 1371  1386     1 
 1371  1387     1 
 1371  1388     1 
 1372  1374     1 
 1372  1375     1 
 1372  1385     1 
 1373  1389     1 
 1373  1390     1 
 1373  1391     1 
 1374  1386     1 
 1374  1387     1 
 1374  1388     1 
 1375  1386     1 
 1375  1387     1 
 1375  1388     1 
 1376  1381     1 
 1376  1382     1 
 1377  1380     1 
 1378  1380     1 
 1379  1383     1 
 1379  1384     1 
 1379  1432     1 
 1380  1433     1 
 1380  1434     1 
 1380  1435     1 
 1381  1383     1 
 1381  1384     1 
 1381  1432     1 
 1382  1436     1 
 1382  1437     1 
 1382  1438     1 
 1383  1433     1 
 1383  1434     1 
 1383  1435     1 
 1384  1433     1 
 1384  1434     1 
 1384  1435     1 
 1385  1392     1 
 1385  1393     1 
 1385  1394     1 
 1386  1389     1 
 1386  1390     1 
 1386  1391     1 
 1387  1389     1 
 1387  1390     1 
 1387  1391     1 
 1388  1395     1 
 1388  1396     1 
 1388  1397     1 
 1389  1392     1 
 1389  1393     1 
 1389  1394     1 
 1390  1392     1 
 1390  1393     1 
 1390  1394     1 
 1391  1398     1 
 1391  1399     1 
 1391  1400     1 
 1392  1395     1 
 1392  1396     1 
 1392  1397     1 
 1393  1395     1 
 1393  1396     1 
 1393  1397     1 
 1394  1401     1 
 1394  1402     1 
 1394  1403     1 
 1395  1398     1 
 1395  1399     1 
 1395  1400     1 
 1396  1398     1 
 1396  1399     1 
 1396  1400     1 
 1397  1404     1 
 1397  1405     1 
 1398  1401     1 
 1398  1402     1 
 1398  1403     1 
 1399  1401     1 
 1399  1402     1 
 1399  1403     1 
 1400  1406     1 
 1400  1407     1 
 1401  1404     1 
 1401  1405     1 
 1402  1404     1 
 1402  1405     1 
 1403  1408     1 
 1403  1409     1 
 1403  1410     1 
 1404  1406     1 
 1404  1407     1 
 1405  1411     1 
 1405  1412     1 
 1405  1413     1 
 1406  1408     1 
 1406  1409     1 
 1406  1410     1 
 1407  1414     1 
 1407  1415     1 
 1407  1416     1 
 1408  1411     1 
 1408  1412     1 
 1408  1413     1 
 1409  1411     1 
 1409  1412     1 
 1409  1413     1 
 1410  1417     1 
 1410  1418     1 
 1410  1419     1 
 1411  1414     1 
 1411  1415     1 
 1411  1416     1 
 1412  1414     1 
 1412  1415     1 
 1412  1416     1 
 1413  1420     1 
 1413  1421     1 
 1413  1422     1 
 1414  1417     1 
 1414  1418     1 
 1414  1419     1 
 1415  1417     1 
 1415  1418     1 
 1415  1419     1 
 1416  1423     1 
 1416  1424     1 
 1416  1425     1 
 1417  1420     1 
 1417  1421     1 
 1417  1422     1 
 1418  1420     1 
 1418  1421     1 
 1418  1422     1 
 1419  1426     1 
 1419  1427     1 
 1419  1428     1 
 1420  1423     1 
 1420  1424     1 
 1420  1425     1 
 1421  1423     1 
 1421  1424     1 
 1421  1425     1 
 1422  1429     1 
 1422  1430     1 
 1422  1431     1 
 1423  1426     1 
 1423  1427     1 
 1423  1428     1 
 1424  1426     1 
 1424  1427     1 
 1424  1428     1 
 1426  1429     1 
 1426  1430     1 
 1426  1431     1 
 1427  1429     1 
 1427  1430     1 
 1427  1431     1 
 1432  1439     1 
 1432  1440     1 
 1432  1441     1 
 1433  1436     1 
 1433  1437     1 
 1433  1438     1 
 1434  1436     1 
 1434  1437     1 
 1434  1438     1 
 1435  1442     1 
 1435  1443     1 
 1435  1444     1 
 1436  1439     1 
 1436  1440     1 
 1436  1441     1 
 1437  1439     1 
 1437  1440     1 
 1437  1441     1 
 1438  1445     1 
 1438  1446     1 
 1438  1447     1 
 1439  1442     1 
 1439  1443     1 
 1439  1444     1 
 1440  1442     1 
 1440  1443     1 
 1440  1444     1 
 1441  1448     1 
 1441  1449     1 
 1441  1450     1 
 1442  1445     1 
 1442  1446     1 
 1442  1447     1 
 1443  1445     1 
 1443  1446     1 
 1443  1447     1 
 1444  1451     1 
 1444  1452     1 
 1444  1453     1 
 1445  1448     1 
 1445  1449     1 
 1445  1450     1 
 1446  1448     1 
 1446  1449     1 
 1446  1450     1 
 1447  1454     1 
 1447  1455     1 
 1447  1456     1 
 1448  1451     1 
 1448  1452     1 
 1448  1453     1 
 1449  1451     1 
 1449  1452     1 
 1449  1453     1 
 1450  1457     1 
 1450  1458     1 
 1450  1459     1 
 1451  1454     1 
 1451  1455     1 
 1451  1456     1 
 1452  1454     1 
 1452  1455     1 
 1452  1456     1 
 1453  1460     1 
 1453  1461     1 
 1453  1462     1 
 1454  1457     1 
 1454  1458     1 
 1454  1459     1 
 1455  1457     1 
 1455  1458     1 
 1455  1459     1 
 1456  1463     1 
 1456  1464     1 
 1456  1465     1 
 1457  1460     1 
 1457  1461     1 
 1457  1462     1 
 1458  1460     1 
 1458  1461     1 
 1458  1462     1 
 1459  1466     1 
 1459  1467     1 
 1459  1468     1 
 1460  1463     1 
 1460  1464     1 
 1460  1465     1 
 1461  1463     1 
 1461  1464     1 
 1461  1465     1 
 1462  1469     1 
 1462  1470     1 
 1462  1471     1 
 1463  1466     1 
 1463  1467     1 
 1463  1468     1 
 1464  1466     1 
 1464  1467     1 
 1464  1468     1 
 1465  1472     1 
 1465  1473     1 
 1465  1474     1 
 1466  1469     1 
 1466  1470     1 
 1466  1471     1 
 1467  1469     1 
 1467  1470     1 
 1467  1471     1 
 1469  1472     1 
 1469  1473     1 
 1469  1474     1 
 1470  1472     1 
 1470  1473     1 
 1470  1474     1 
 1475  1492     1 
 1475  1493     1 
 1475  1497     1 
 1476  1480     1 
 1476  1481     1 
 1476  1482     1 
 1476  1484     1 
 1476  1485     1 
 1476  1486     1 
 1476  1488     1 
 1476  1489     1 
 1476  1490     1 
 1476  1494     1 
 1477  1479     1 
 1477  1483     1 
 1477  1487     1 
 1477  1492     1 
 1477  1493     1 
 1477  1497     1 
 1478  1479     1 
 1478  1483     1 
 1478  1487     1 
 1478  1492     1 
 1478  1493     1 
 1478  1497     1 
 1479  1484     1 
 1479  1485     1 
 1479  1486     1 
 1479  1488     1 
 1479  1489     1 
 1479  1490     1 
 1479  1491     1 
 1480  1483     1 
 1480  1487     1 
 1481  1483     1 
 1481  1487     1 
 1482  1483     1 
 1482  1487     1 
 1483  1488     1 
 1483  1489     1 
 1483  1490     1 
 1483  1491     1 
 1484  1487     1 
 1485  1487     1 
 1486  1487     1 
 1487  1491     1 
 1491  1495     1 
 1491  1496     1 
 1491  1498     1 
 1492  1494     1 
 1493  1494     1 
 1494  1500     1 
 1494  1501     1 
 1494  1502     1 
 1495  1499     1 
 1496  1499     1 
 1497  1499     1 
 1498  1503     1 
 1498  1504     1 
 1498  1510     1 
 1499  1505     1 
 1499  1511     1 
 1499  1512     1 
 1499  1513     1 
 1500  1503     1 
 1500  1504     1 
 1500  1510     1 
 1501  1503     1 
 1501  1504     1 
 1501  1510     1 
 1502  1506     1 
 1502  1507     1 
 1502  1514     1 
 1503  1505     1 
 1503  1511     1 
 1503  1512     1 
 1503  1513     1 
 1504  1508     1 
 1504  1509     1 
 1504  1511     1 
 1504  1512     1 
 1504  1513     1 
 1504  1519     1 
 1505  1510     1 
 1505  1520     1 
 1505  1521     1 
 1505  1522     1 
 1506  1508     1 
 1506  1509     1 
 1506  1519     1 
 1507  1523     1 
 1507  1524     1 
 1507  1525     1 
 1508  1520     1 
 1508  1521     1 
 1508  1522     1 
 1509  1520     1 
 1509  1521     1 
 1509  1522     1 
 1510  1515     1 
 1510  1516     1 
 1511  1514     1 
 1512  1514     1 
 1513  1517     1 
 1513  1518     1 
 1513  1566     1 
 1514  1567     1 
 1514  1568     1 
 1514  1569     1 
 1515  1517     1 
 1515  1518     1 
 1515  1566     1 
 1516  1570     1 
 1516  1571     1 
 1516  1572     1 
 1517  1567     1 
 1517  1568     1 
 1517  1569     1 
 1518  1567     1 
 1518  1568     1 
 1518  1569     1 
 1519  1526     1 
 1519  1527     1 
 1519  1528     1 
 1520  1523     1 
 1520  1524     1 
 1520  1525     1 
 1521  1523     1 
 1521  1524     1 
 1521  1525     1 
 1522  1529     1 
 1522  1530     1 
 1522  1531     1 
 1523  1526     1 
 1523  1527     1 
 1523  1528     1 
 1524  1526     1 
 1524  1527     1 
 1524  1528     1 
 1525  1532     1 
 1525  1533     1 
 1525  1534     1 
 1526  1529     1 
 1526  1530     1 
 1526  1531     1 
 1527  1529     1 
 1527  1530     1 
 1527  1531     1 
 1528  1535     1 
 1528  1536     1 
 1528  1537     1 
 1529  1532     1 
 1529  1533     1 
 1529  1534     1 
 1530  1532     1 
 1530  1533     1 
 1530  1534     1 
 1531  1538     1 
 1531  1539     1 
 1532  1535     1 
 1532  1536     1 
 1532  1537     1 
 1533  1535     1 
 1533  1536     1 
 1533  1537     1 
 1534  1540     1 
 1534  1541     1 
 1535  1538     1 
 1535  1539     1 
 1536  1538     1 
 1536  1539     1 
 1537  1542     1 
 1537  1543     1 
 1537  1544     1 
 1538  1540     1 
 1538  1541     1 
 1539  1545     1 
 1539  1546     1 
 1539  1547     1 
 1540  1542     1 
 1540  1543     1 
 1540  1544     1 
 1541  1548     1 
 1541  1549     1 
 1541  1550     1 
 1542  1545     1 
 1542  1546     1 
 1542  1547     1 
 1543  1545     1 
 1543  1546     1 
 1543  1547     1 
 1544  1551     1 
 1544  1552     1 
 1544  1553     1 
 1545  1548     1 
 1545  1549     1 
 1545  1550     1 
 1546  1548     1 
 1546  1549     1 
 1546  1550     1 
 1547  1554     1 
 1547  1555     1 
 1547  1556     1 
 1548  1551     1 
 1548  1552     1 
 1548  1553     1 
 1549  1551     1 
 1549  1552     1 
 1549  1553     1 
 1550  1557     1 
 1550  1558     1 
 1550  1559     1 
 1551  1554     1 
 1551  1555     1 
 1551  1556     1 
 1552  1554     1 
 1552  1555     1 
 1552  1556     1 
 1553  1560     1 
 1553  1561     1 
 1553  1562     1 
 1554  1557     1 
 1554  1558     1 
 1554  1559     1 
 1555  1557     1 
 1555  1558     1 
 1555  1559     1 
 1556  1563     1 
 1556  1564     1 
 1556  1565     1 
 1557  1560     1 
 1557  1561     1 
 1557  1562     1 
 1558  1560     1 
 1558  1561     1 
 1558  1562     1 
 1560  1563     1 
 1560  1564     1 
 1560  1565     1 
 1561  1563     1 
 1561  1564     1 
 1561  1565     1 
 1566  1573     1 
 1566  1574     1 
 1566  1575     1 
 1567  1570     1 
 1567  1571     1 
 1567  1572     1 
 1568  1570     1 
 1568  1571     1 
 1568  1572     1 
 1569  1576     1 
 1569  1577     1 
 1569  1578     1 
 1570  1573     1 
 1570  1574     1 
 1570  1575     1 
 1571  1573     1 
 1571  1574     1 
 1571  1575     1 
 1572  1579     1 
 1572  1580     1 
 1572  1581     1 
 1573  1576     1 
 1573  1577     1 
 1573  1578     1 
 1574  1576     1 
 1574  1577     1 
 1574  1578     1 
 1575  1582     1 
 1575  1583     1 
 1575  1584     1 
 1576  1579     1 
 1576  1580     1 
 1576  1581     1 
 1577  1579     1 
 1577  1580     1 
 1577  1581     1 
 1578  1585     1 
 1578  1586     1 
 1578  1587     1 
 1579  1582     1 
 1579  1583     1 
 1579  1584     1 
 1580  1582     1 
 1580  1583     1 
 1580  1584     1 
 1581  1588     1 
 1581  1589     1 
 1581  1590     1 
 1582  1585     1 
 1582  1586     1 
 1582  1587     1 
 1583  1585     1 
 1583  1586     1 
 1583  1587     1 
 1584  1591     1 
 1584  1592     1 
 1584  1593     1 
 1585  1588     1 
 1585  1589     1 
 1585  1590     1 
 1586  1588     1 
 1586  1589     1 
 1586  1590     1 
 1587  1594     1 
 1587  1595     1 
 1587  1596     1 
 1588  1591     1 
 1588  1592     1 
 1588  1593     1 
 1589  1591     1 
 1589  1592     1 
 1589  1593     1 
 1590  1597     1 
 1590  1598     1 
 1590  1599     1 
 1591  1594     1 
 1591  1595     1 
 1591  1596     1 
 1592  1594     1 
 1592  1595     1 
 1592  1596     1 
 1593  1600     1 
 1593  1601     1 
 1593  1602     1 
 1594  1597     1 
 1594  1598     1 
 1594  1599     1 
 1595  1597     1 
 1595  1598     1 
 1595  1599     1 
 1596  1603     1 
 1596  1604     1 
 1596  1605     1 
 1597  1600     1 
 1597  1601     1 
 1597  1602     1 
 1598  1600     1 
 1598  1601     1 
 1598  1602     1 
 1599  1606     1 
 1599  1607     1 
 1599  1608     1 
 1600  1603     1 
 1600  1604     1 
 1600  1605     1 
 1601  1603     1 
 1601  1604     1 
 1601  1605     1 
 1603  1606     1 
 1603  1607     1 
 1603  1608     1 
 1604  1606     1 
 1604  1607     1 
 1604  1608     1 
 1609  1626     1 
 1609  1627     1 
 1609  1631     1 
 1610  1614     1 
 1610  1615     1 
 1610  1616     1 
 1610  1618     1 
 1610  1619     1 
 1610  1620     1 
 1610  1622     1 
 1610  1623     1 
 1610  1624     1 
 1610  1628     1 
 1611  1613     1 
 1611  1617     1 
 1611  1621     1 
 1611  1626     1 
 1611  1627     1 
 1611  1631     1 
 1612  1613     1 
 1612  1617     1 
 1612  1621     1 
 1612  1626     1 
 1612  1627     1 
 1612  1631     1 
 1613  1618     1 
 1613  1619     1 
 1613  1620     1 
 1613  1622     1 
 1613  1623     1 
 1613  1624     1 
 1613  1625     1 
 1614  1617     1 
 1614  1621     1 
 1615  1617     1 
 1615  1621     1 
 1616  1617     1 
 1616  1621     1 
 1617  1622     1 
 1617  1623     1 
 1617  1624     1 
 1617  1625     1 
 1618  1621     1 
 1619  1621     1 
 1620  1621     1 
 1621  1625     1 
 1625  1629     1 
 1625  1630     1 
 1625  1632     1 
 1626  1628     1 
 1627  1628     1 
 1628  1634     1 
 1628  1635     1 
 1628  1636     1 
 1629  1633     1 
 1630  1633     1 
 1631  1633     1 
 1632  1637     1 
 1632  1638     1 
 1632  1644     1 
 1633  1639     1 
 1633  1645     1 
 1633  1646     1 
 1633  1647     1 
 1634  1637     1 
 1634  1638     1 
 1634  1644     1 
 1635  1637     1 
 1635  1638     1 
 1635  1644     1 
 1636  1640     1 
 1636  1641     1 
 1636  1648     1 
 1637  1639     1 
 1637  1645     1 
 1637  1646     1 
 1637  1647     1 
 1638  1642     1 
 1638  1643     1 
 1638  1645     1 
 1638  1646     1 
 1638  1647     1 
 1638  1653     1 
 1639  1644     1 
 1639  1654     1 
 1639  1655     1 
 1639  1656     1 
 1640  1642     1 
 1640  1643     1 
 1640  1653     1 
 1641  1657     1 
 1641  1658     1 
 1641  1659     1 
 1642  1654     1 
 1642  1655     1 
 1642  1656     1 
 1643  1654     1 
 1643  1655     1 
 1643  1656     1 
 1644  1649     1 
 1644  1650     1 
 1645  1648     1 
 1646  1648     1 
 1647  1651     1 
 1647  1652     1 
 1647  1700     1 
 1648  1701     1 
 1648  1702     1 
 1648  1703     1 
 1649  1651     1 
 1649  1652     1 
 1649  1700     1 
 1650  1704     1 
 1650  1705     1 
 1650  1706     1 
 1651  1701     1 
 1651  1702     1 
 1651  1703     1 
 1652  1701     1 
 1652  1702     1 
 1652  1703     1 
 1653  1660     1 
 1653  1661     1 
 1653  1662     1 
 1654  1657     1 
 1654  1658     1 
 1654  1659     1 
 1655  1657     1 
 1655  1658     1 
 1655  1659     1 
 1656  1663     1 
 1656  1664     1 
 1656  1665     1 
 1657  1660     1 
 1657  1661     1 
 1657  1662     1 
 1658  1660     1 
 1658  1661     1 
 1658  1662     1 
 1659  1666     1 
 1659  1667     1 
 1659  1668     1 
 1660  1663     1 
 1660  1664     1 
 1660  1665     1 
 1661  1663     1 
 1661  1664     1 
 1661  1665     1 
 1662  1669     1 
 1662  1670     1 
 1662  1671     1 
 1663  1666     1 
 1663  1667     1 
 1663  1668     1 
 1664  1666     1 
 1664  1667     1 
 1664  1668     1 
 1665  1672     1 
 1665  1673     1 
 1666  1669     1 
 1666  1670     1 
 1666  1671     1 
 1667  1669     1 
 1667  1670     1 
 1667  1671     1 
 1668  1674     1 
 1668  1675     1 
 1669  1672     1 
 1669  1673     1 
 1670  1672     1 
 1670  1673     1 
 1671  1676     1 
 1671  1677     1 
 1671  1678     1 
 1672  1674     1 
 1672  1675     1 
 1673  1679     1 
 1673  1680     1 
 1673  1681     1 
 1674  1676     1 
 1674  1677     1 
 1674  1678     1 
 1675  1682     1 
 1675  1683     1 
 1675  1684     1 
 1676  1679     1 
 1676  1680     1 
 1676  1681     1 
 1677  1679     1 
 1677  1680     1 
 1677  1681     1 
 1678  1685     1 
 1678  1686     1 
 1678  1687     1 
 1679  1682     1 
 1679  1683     1 
 1679  1684     1 
 1680  1682     1 
 1680  1683     1 
 1680  1684     1 
 1681  1688     1 
 1681  1689     1 
 1681  1690     1 
 1682  1685     1 
 1682  1686     1 
 1682  1687     1 
 1683  1685     1 
 1683  1686     1 
 1683  1687     1 
 1684  1691     1 
 1684  1692     1 
 1684  1693     1 
 1685  1688     1 
 1685  1689     1 
 1685  1690     1 
 1686  1688     1 
 1686  1689     1 
 1686  1690     1 
 1687  1694     1 
 1687  1695     1 
 1687  1696     1 
 1688  1691     1 
 1688  1692     1 
 1688  1693     1 
 1689  1691     1 
 1689  1692     1 
 1689  1693     1 
 1690  1697     1 
 1690  1698     1 
 1690  1699     1 
 1691  1694     1 
 1691  1695     1 
 1691  1696     1 
 1692  1694     1 
 1692  1695     1 
 1692  1696     1 
 1694  1697     1 
 1694  1698     1 
 1694  1699     1 
 1695  1697     1 
 1695  1698     1 
 1695  1699     1 
 1700  1707     1 
 1700  1708     1 
 1700  1709     1 
 1701  1704     1 
 1701  1705     1 
 1701  1706     1 
 1702  1704     1 
 1702  1705     1 
 1702  1706     1 
 1703  1710     1 
 1703  1711     1 
 1703  1712     1 
 1704  1707     1 
 1704  1708     1 
 1704  1709     1 
 1705  1707     1 
 1705  1708     1 
 1705  1709     1 
 1706  1713     1 
 1706  1714     1 
 1706  1715     1 
 1707  1710     1 
 1707  1711     1 
 1707  1712     1 
 1708  1710     1 
 1708  1711     1 
 1708  1712     1 
 1709  1716     1 
 1709  1717     1 
 1709  1718     1 
 1710  1713     1 
 1710  1714     1 
 1710  1715     1 
 1711  1713     1 
 1711  1714     1 
 1711  1715     1 
 1712  1719     1 
 1712  1720     1 
 1712  1721     1 
 1713  1716     1 
 1713  1717     1 
 1713  1718     1 
 1714  1716     1 
 1714  1717     1 
 1714  1718     1 
 1715  1722     1 
 1715  1723     1 
 1715  1724     1 
 1716  1719     1 
 1716  1720     1 
 1716  1721     1 
 1717  1719     1 
 1717  1720     1 
 1717  1721     1 
 1718  1725     1 
 1718  1726     1 
 1718  1727     1 
 1719  1722     1 
 1719  1723     1 
 1719  1724     1 
 1720  1722     1 
 1720  1723     1 
 1720  1724     1 
 1721  1728     1 
 1721  1729     1 
 1721  1730     1 
 1722  1725     1 
 1722  1726     1 
 1722  1727     1 
 1723  1725     1 
 1723  1726     1 
 1723  1727     1 
 1724  1731     1 
 1724  1732     1 
 1724  1733     1 
 1725  1728     1 
 1725  1729     1 
 1725  1730     1 
 1726  1728     1 
 1726  1729     1 
 1726  1730     1 
 1727  1734     1 
 1727  1735     1 
 1727  1736     1 
 1728  1731     1 
 1728  1732     1 
 1728  1733     1 
 1729  1731     1 
 1729  1732     1 
 1729  1733     1 
 1730  1737     1 
 1730  1738     1 
 1730  1739     1 
 1731  1734     1 
 1731  1735     1 
 1731  1736     1 
 1732  1734     1 
 1732  1735     1 
 1732  1736     1 
 1733  1740     1 
 1733  1741     1 
 1733  1742     1 
 1734  1737     1 
 1734  1738     1 
 1734  1739     1 
 1735  1737     1 
 1735  1738     1 
 1735  1739     1 
 1737  1740     1 
 1737  1741     1 
 1737  1742     1 
 1738  1740     1 
 1738  1741     1 
 1738  1742     1 
 1743  1760     1 
 1743  1761     1 
 1743  1765     1 
 1744  1748     1 
 1744  1749     1 
 1744  1750     1 
 1744  1752     1 
 1744  1753     1 
 1744  1754     1 
 1744  1756     1 
 1744  1757     1 
 1744  1758     1 
 1744  1762     1 
 1745  1747     1 
 1745  1751     1 
 1745  1755     1 
 1745  1760     1 
 1745  1761     1 
 1745  1765     1 
 1746  1747     1 
 1746  1751     1 
 1746  1755     1 
 1746  1760     1 
 1746  1761     1 
 1746  1765     1 
 1747  1752     1 
 1747  1753     1 
 1747  1754     1 
 1747  1756     1 
 1747  1757     1 
 1747  1758     1 
 1747  1759     1 
 1748  1751     1 
 1748  1755     1 
 1749  1751     1 
 1749  1755     1 
 1750  1751     1 
 1750  1755     1 
 1751  1756     1 
 1751  1757     1 
 1751  1758     1 
 1751  1759     1 
 1752  1755     1 
 1753  1755     1 
 1754  1755     1 
 1755  1759     1 
 1759  1763     1 
 1759  1764     1 
 1759  1766     1 
 1760  1762     1 
 1761  1762     1 
 1762  1768     1 
 1762  1769     1 
 1762  1770     1 
 1763  1767     1 
 1764  1767     1 
 1765  1767     1 
 1766  1771     1 
 1766  1772     1 
 1766  1778     1 
 1767  1773     1 
 1767  1779     1 
 1767  1780     1 
 1767  1781     1 
 1768  1771     1 
 1768  1772     1 
 1768  1778     1 
 1769  1771     1 
 1769  1772     1 
 1769  1778     1 
 1770  1774     1 
 1770  1775     1 
 1770  1782     1 
 1771  1773     1 
 1771  1779     1 
 1771  1780     1 
 1771  1781     1 
 1772  1776     1 
 1772  1777     1 
 1772  1779     1 
 1772  1780     1 
 1772  1781     1 
 1772  1787     1 
 1773  1778     1 
 1773  1788     1 
 1773  1789     1 
 1773  1790     1 
 1774  1776     1 
 1774  1777     1 
 1774  1787     1 
 1775  1791     1 
 1775  1792     1 
 1775  1793     1 
 1776  1788     1 
 1776  1789     1 
 1776  1790     1 
 1777  1788     1 
 1777  1789     1 
 1777  1790     1 
 1778  1783     1 
 1778  1784     1 
 1779  1782     1 
 1780  1782     1 
 1781  1785     1 
 1781  1786     1 
 1781  1834     1 
 1782  1835     1 
 1782  1836     1 
 1782  1837     1 
 1783  1785     1 
 1783  1786     1 
 1783  1834     1 
 1784  1838     1 
 1784  1839     1 
 1784  1840     1 
 1785  1835     1 
 1785  1836     1 
 1785  1837     1 
 1786  1835     1 
 1786  1836     1 
 1786  1837     1 
 1787  1794     1 
 1787  1795     1 
 1787  1796     1 
 1788  1791     1 
 1788  1792     1 
 1788  1793     1 
 1789  1791     1 
 1789  1792     1 
 1789  1793     1 
 1790  1797     1 
 1790  1798     1 
 1790  1799     1 
 1791  1794     1 
 1791  1795     1 
 1791  1796     1 
 1792  1794     1 
 1792  1795     1 
 1792  1796     1 
 1793  1800     1 
 1793  1801     1 
 1793  1802     1 
 1794  1797     1 
 1794  1798     1 
 1794  1799     1 
 1795  1797     1 
 1795  1798     1 
 1795  1799     1 
 1796  1803     1 
 1796  1804     1 
 1796  1805     1 
 1797  1800     1 
 1797  1801     1 
 1797  1802     1 
 1798  1800     1 
 1798  1801     1 
 1798  1802     1 
 1799  1806     1 
 1799  1807     1 
 1800  1803     1 
 1800  1804     1 
 1800  1805     1 
 1801  1803     1 
 1801  1804     1 
 1801  1805     1 
 1802  1808     1 
 1802  1809     1 
 1803  1806     1 
 1803  1807     1 
 1804  1806     1 
 1804  1807     1 
 1805  1810     1 
 1805  1811     1 
 1805  1812     1 
 1806  1808     1 
 1806  1809     1 
 1807  1813     1 
 1807  1814     1 
 1807  1815     1 
 1808  1810     1 
 1808  1811     1 
 1808  1812     1 
 1809  1816     1 
 1809  1817     1 
 1809  1818     1 
 1810  1813     1 
 1810  1814     1 
 1810  1815     1 
 1811  1813     1 
 1811  1814     1 
 1811  1815     1 
 1812  1819     1 
 1812  1820     1 
 1812  1821     1 
 1813  1816     1 
 1813  1817     1 
 1813  1818     1 
 1814  1816     1 
 1814  1817     1 
 1814  1818     1 
 1815  1822     1 
 1815  1823     1 
 1815  1824     1 
 1816  1819     1 
 1816  1820     1 
 1816  1821     1 
 1817  1819     1 
 1817  1820     1 
 1817  1821     1 
 1818  1825     1 
 1818  1826     1 
 1818  1827     1 
 1819  1822     1 
 1819  1823     1 
 1819  1824     1 
 1820  1822     1 
 1820  1823     1 
 1820  1824     1 
 1821  1828     1 
 1821  1829     1 
 1821  1830     1 
 1822  1825     1 
 1822  1826     1 
 1822  1827     1 
 1823  1825     1 
 1823  1826     1 
 1823  1827     1 
 1824  1831     1 
 1824  1832     1 
 1824  1833     1 
 1825  1828     1 
 1825  1829     1 
 1825  1830     1 
 1826  1828     1 
 1826  1829     1 
 1826  1830     1 
 1828  1831     1 
 1828  1832     1 
 1828  1833     1 
 1829  1831     1 
 1829  1832     1 
 1829  1833     1 
 1834  1841     1 
 1834  1842     1 
 1834  1843     1 
 1835  1838     1 
 1835  1839     1 
 1835  1840     1 
 1836  1838     1 
 1836  1839     1 
 1836  1840     1 
 1837  1844     1 
 1837  1845     1 
 1837  1846     1 
 1838  1841     1 
 1838  1842     1 
 1838  1843     1 
 1839  1841     1 
 1839  1842     1 
 1839  1843     1 
 1840  1847     1 
 1840  1848     1 
 1840  1849     1 
 1841  1844     1 
 1841  1845     1 
 1841  1846     1 
 1842  1844     1 
 1842  1845     1 
 1842  1846     1 
 1843  1850     1 
 1843  1851     1 
 1843  1852     1 
 1844  1847     1 
 1844  1848     1 
 1844  1849     1 
 1845  1847     1 
 1845  1848     1 
 1845  1849     1 
 1846  1853     1 
 1846  1854     1 
 1846  1855     1 
 1847  1850     1 
 1847  1851     1 
 1847  1852     1 
 1848  1850     1 
 1848  1851     1 
 1848  1852     1 
 1849  1856     1 
 1849  1857     1 
 1849  1858     1 
 1850  1853     1 
 1850  1854     1 
 1850  1855     1 
 1851  1853     1 
 1851  1854     1 
 1851  1855     1 
 1852  1859     1 
 1852  1860     1 
 1852  1861     1 
 1853  1856     1 
 1853  1857     1 
 1853  1858     1 
 1854  1856     1 
 1854  1857     1 
 1854  1858     1 
 1855  1862     1 
 1855  1863     1 
 1855  1864     1 
 1856  1859     1 
 1856  1860     1 
 1856  1861     1 
 1857  1859     1 
 1857  1860     1 
 1857  1861     1 
 1858  1865     1 
 1858  1866     1 
 1858  1867     1 
 1859  1862     1 
 1859  1863     1 
 1859  1864     1 
 1860  1862     1 
 1860  1863     1 
 1860  1864     1 
 1861  1868     1 
 1861  1869     1 
 1861  1870     1 
 1862  1865     1 
 1862  1866     1 
 1862  1867     1 
 1863  1865     1 
 1863  1866     1 
 1863  1867     1 
 1864  1871     1 
 1864  1872     1 
 1864  1873     1 
 1865  1868     1 
 1865  1869     1 
 1865  1870     1 
 1866  1868     1 
 1866  1869     1 
 1866  1870     1 
 1867  1874     1 
 1867  1875     1 
 1867  1876     1 
 1868  1871     1 
 1868  1872     1 
 1868  1873     1 
 1869  1871     1 
 1869  1872     1 
 1869  1873     1 
 1871  1874     1 
 1871  1875     1 
 1871  1876     1 
 1872  1874     1 
 1872  1875     1 
 1872  1876     1 
 1877  1894     1 
 1877  1895     1 
 1877  1899     1 
 1878  1882     1 
 1878  1883     1 
 1878  1884     1 
 1878  1886     1 
 1878  1887     1 
 1878  1888     1 
 1878  1890     1 
 1878  1891     1 
 1878  1892     1 
 1878  1896     1 
 1879  1881     1 
 1879  1885     1 
 1879  1889     1 
 1879  1894     1 
 1879  1895     1 
 1879  1899     1 
 1880  1881     1 
 1880  1885     1 
 1880  1889     1 
 1880  1894     1 
 1880  1895     1 
 1880  1899     1 
 1881  1886     1 
 1881  1887     1 
 1881  1888     1 
 1881  1890     1 
 1881  1891     1 
 1881  1892     1 
 1881  1893     1 
 1882  1885     1 
 1882  1889     1 
 1883  1885     1 
 1883  1889     1 
 1884  1885     1 
 1884  1889     1 
 1885  1890     1 
 1885  1891     1 
 1885  1892     1 
 1885  1893     1 
 1886  1889     1 
 1887  1889     1 
 1888  1889     1 
 1889  1893     1 
 1893  1897     1 
 1893  1898     1 
 1893  1900     1 
 1894  1896     1 
 1895  1896     1 
 1896  1902     1 
 1896  1903     1 
 1896  1904     1 
 1897  1901     1 
 1898  1901     1 
 1899  1901     1 
 1900  1905     1 
 1900  1906     1 
 1900  1912     1 
 1901  1907     1 
 1901  1913     1 
 1901  1914     1 
 1901  1915     1 
 1902  1905     1 
 1902  1906     1 
 1902  1912     1 
 1903  1905     1 
 1903  1906     1 
 1903  1912     1 
 1904  1908     1 
 1904  1909     1 
 1904  1916     1 
 1905  1907     1 
 1905  1913     1 
 1905  1914     1 
 1905  1915     1 
 1906  1910     1 
 1906  1911     1 
 1906  1913     1 
 1906  1914     1 
 1906  1915     1 
 1906  1921     1 
 1907  1912     1 
 1907  1922     1 
 1907  1923     1 
 1907  1924     1 
 1908  1910     1 
 1908  1911     1 
 1908  1921     1 
 1909  1925     1 
 1909  1926     1 
 1909  1927     1 
 1910  1922     1 
 1910  1923     1 
 1910  1924     1 
 1911  1922     1 
 1911  1923     1 
 1911  1924     1 
 1912  1917     1 
 1912  1918     1 
 1913  1916     1 
 1914  1916     1 
 1915  1919     1 
 1915  1920     1 
 1915  1968     1 
 1916  1969     1 
 1916  1970     1 
 1916  1971     1 
 1917  1919     1 
 1917  1920     1 
 1917  1968     1 
 1918  1972     1 
 1918  1973     1 
 1918  1974     1 
 1919  1969     1 
 1919  1970     1 
 1919  1971     1 
 1920  1969     1 
 1920  1970     1 
 1920  1971     1 
 1921  1928     1 
 1921  1929     1 
 1921  1930     1 
 1922  1925     1 
 1922  1926     1 
 1922  1927     1 
 1923  1925     1 
 1923  1926     1 
 1923  1927     1 
 1924  1931     1 
 1924  1932     1 
 1924  1933     1 
 1925  1928     1 
 1925  1929     1 
 1925  1930     1 
 1926  1928     1 
 1926  1929     1 
 1926  1930     1 
 1927  1934     1 
 1927  1935     1 
 1927  1936     1 
 1928  1931     1 
 1928  1932     1 
 1928  1933     1 
 1929  1931     1 
 1929  1932     1 
 1929  1933     1 
 1930  1937     1 
 1930  1938     1 
 1930  1939     1 
 1931  1934     1 
 1931  1935     1 
 1931  1936     1 
 1932  1934     1 
 1932  1935     1 
 1932  1936     1 
 1933  1940     1 
 1933  1941     1 
 1934  1937     1 
 1934  1938     1 
 1934  1939     1 
 1935  1937     1 
 1935  1938     1 
 1935  1939     1 
 1936  1942     1 
 1936  1943     1 
 1937  1940     1 
 1937  1941     1 
 1938  1940     1 
 1938  1941     1 
 1939  1944     1 
 1939  1945     1 
 1939  1946     1 
 1940  1942     1 
 1940  1943     1 
 1941  1947     1 
 1941  1948     1 
 1941  1949     1 
 1942  1944     1 
 1942  1945     1 
 1942  1946     1 
 1943  1950     1 
 1943  1951     1 
 1943  1952     1 
 1944  1947     1 
 1944  1948     1 
 1944  1949     1 
 1945  1947     1 
 1945  1948     1 
 1945  1949     1 
 1946  1953     1 
 1946  1954     1 
 1946  1955     1 
 1947  1950     1 
 1947  1951     1 
 1947  1952     1 
 1948  1950     1 
 1948  1951     1 
 1948  1952     1 
 1949  1956     1 
 1949  1957     1 
 1949  1958     1 
 1950  1953     1 
 1950  1954     1 
 1950  1955     1 
 1951  1953     1 
 1951  1954     1 
 1951  1955     1 
 1952  1959     1 
 1952  1960     1 
 1952  1961     1 
 1953  1956     1 
 1953  1957     1 
 1953  1958     1 
 1954  1956     1 
 1954  1957     1 
 1954  1958     1 
 1955  1962     1 
 1955  1963     1 
 1955  1964     1 
 1956  1959     1 
 1956  1960     1 
 1956  1961     1 
 1957  1959     1 
 1957  1960     1 
 1957  1961     1 
 1958  1965     1 
 1958  1966     1 
 1958  1967     1 
 1959  1962     1 
 1959  1963     1 
 1959  1964     1 
 1960  1962     1 
 1960  1963     1 
 1960  1964     1 
 1962  1965     1 
 1962  1966     1 
 1962  1967     1 
 1963  1965     1 
 1963  1966     1 
 1963  1967     1 
 1968  1975     1 
 1968  1976     1 
 1968  1977     1 
 1969  1972     1 
 1969  1973     1 
 1969  1974     1 
 1970  1972     1 
 1970  1973     1 
 1970  1974     1 
 1971  1978     1 
 1971  1979     1 
 1971  1980     1 
 1972  1975     1 
 1972  1976     1 
 1972  1977     1 
 1973  1975     1 
 1973  1976     1 
 1973  1977     1 
 1974  1981     1 
 1974  1982     1 
 1974  1983     1 
 1975  1978     1 
 1975  1979     1 
 1975  1980     1 
 1976  1978     1 
 1976  1979     1 
 1976  1980     1 
 1977  1984     1 
 1977  1985     1 
 1977  1986     1 
 1978  1981     1 
 1978  1982     1 
 1978  1983     1 
 1979  1981     1 
 1979  1982     1 
 1979  1983     1 
 1980  1987     1 
 1980  1988     1 
 1980  1989     1 
 1981  1984     1 
 1981  1985     1 
 1981  1986     1 
 1982  1984     1 
 1982  1985     1 
 1982  1986     1 
 1983  1990     1 
 1983  1991     1 
 1983  1992     1 
 1984  1987     1 
 1984  1988     1 
 1984  1989     1 
 1985  1987     1 
 1985  1988     1 
 1985  1989     1 
 1986  1993     1 
 1986  1994     1 
 1986  1995     1 
 1987  1990     1 
 1987  1991     1 
 1987  1992     1 
 1988  1990     1 
 1988  1991     1 
 1988  1992     1 
 1989  1996     1 
 1989  1997     1 
 1989  1998     1 
 1990  1993     1 
 1990  1994     1 
 1990  1995     1 
 1991  1993     1 
 1991  1994     1 
 1991  1995     1 
 1992  1999     1 
 1992  2000     1 
 1992  2001     1 
 1993  1996     1 
 1993  1997     1 
 1993  1998     1 
 1994  1996     1 
 1994  1997     1 
 1994  1998     1 
 1995  2002     1 
 1995  2003     1 
 1995  2004     1 
 1996  1999     1 
 1996  2000     1 
 1996  2001     1 
 1997  1999     1 
 1997  2000     1 
 1997  2001     1 
 1998  2005     1 
 1998  2006     1 
 1998  2007     1 
 1999  2002     1 
 1999  2003     1 
 1999  2004     1 
 2000  2002     1 
 2000  2003     1 
 2000  2004     1 
 2001  2008     1 
 2001  2009     1 
 2001  2010     1 
 2002  2005     1 
 2002  2006     1 
 2002  2007     1 
 2003  2005     1 
 2003  2006     1 
 2003  2007     1 
 2005  2008     1 
 2005  2009     1 
 2005  2010     1 
 2006  2008     1 
 2006  2009     1 
 2006  2010     1 
 2011  2028     1 
 2011  2029     1 
 2011  2033     1 
 2012  2016     1 
 2012  2017     1 
 2012  2018     1 
 2012  2020     1 
 2012  2021     1 
 2012  2022     1 
 2012  2024     1 
 2012  2025     1 
 2012  2026     1 
 2012  2030     1 
 2013  2015     1 
 2013  2019     1 
 2013  2023     1 
 2013  2028     1 
 2013  2029     1 
 2013  2033     1 
 2014  2015     1 
 2014  2019     1 
 2014  2023     1 
 2014  2028     1 
 2014  2029     1 
 2014  2033     1 
 2015  2020     1 
 2015  2021     1 
 2015  2022     1 
 2015  2024     1 
 2015  2025     1 
 2015  2026     1 
 2015  2027     1 
 2016  2019     1 
 2016  2023     1 
 2017  2019     1 
 2017  2023     1 
 2018  2019     1 
 2018  2023     1 
 2019  2024     1 
 2019  2025     1 
 2019  2026     1 
 2019  2027     1 
 2020  2023     1 
 2021  2023     1 
 2022  2023     1 
 2023  2027     1 
 2027  2031     1 
 2027  2032     1 
 2027  2034     1 
 2028  2030     1 
 2029  2030     1 
 2030  2036     1 
 2030  2037     1 
 2030  2038     1 
 2031  2035     1 
 2032  2035     1 
 2033  2035     1 
 2034  2039     1 
 2034  2040     1 
 2034  2046     1 
 2035  2041     1 
 2035  2047     1 
 2035  2048     1 
 2035  2049     1 
 2036  2039     1 
 2036  2040     1 
 2036  2046     1 
 2037  2039     1 
 2037  2040     1 
 2037  2046     1 
 2038  2042     1 
 2038  2043     1 
 2038  2050     1 
 2039  2041     1 
 2039  2047     1 
 2039  2048     1 
 2039  2049     1 
 2040  2044     1 
 2040  2045     1 
 2040  2047     1 
 2040  2048     1 
 2040  2049     1 
 2040  2055     1 
 2041  2046     1 
 2041  2056     1 
 2041  2057     1 
 2041  2058     1 
 2042  2044     1 
 2042  2045     1 
 2042  2055     1 
 2043  2059     1 
 2043  2060     1 
 2043  2061     1 
 2044  2056     1 
 2044  2057     1 
 2044  2058     1 
 2045  2056     1 
 2045  2057     1 
 2045  2058     1 
 2046  2051     1 
 2046  2052     1 
 2047  2050     1 
 2048  2050     1 
 2049  2053     1 
 2049  2054     1 
 2049  2102     1 
 2050  2103     1 
 2050  2104     1 
 2050  2105     1 
 2051  2053     1 
 2051  2054     1 
 2051  2102     1 
 2052  2106     1 
 2052  2107     1 
 2052  2108     1 
 2053  2103     1 
 2053  2104     1 
 2053  2105     1 
 2054  2103     1 
 2054  2104     1 
 2054  2105     1 
 2055  2062     1 
 2055  2063     1 
 2055  2064     1 
 2056  2059     1 
 2056  2060     1 
 2056  2061     1 
 2057  2059     1 
 2057  2060     1 
 2057  2061     1 
 2058  2065     1 
 2058  2066     1 
 2058  2067     1 
 2059  2062     1 
 2059  2063     1 
 2059  2064     1 
 2060  2062     1 
 2060  2063     1 
 2060  2064     1 
 2061  2068     1 
 2061  2069     1 
 2061  2070     1 
 2062  2065     1 
 2062  2066     1 
 2062  2067     1 
 2063  2065     1 
 2063  2066     1 
 2063  2067     1 
 2064  2071     1 
 2064  2072     1 
 2064  2073     1 
 2065  2068     1 
 2065  2069     1 
 2065  2070     1 
 2066  2068     1 
 2066  2069     1 
 2066  2070     1 
 2067  2074     1 
 2067  2075     1 
 2068  2071     1 
 2068  2072     1 
 2068  2073     1 
 2069  2071     1 
 2069  2072     1 
 2069  2073     1 
 2070  2076     1 
 2070  2077     1 
 2071  2074     1 
 2071  2075     1 
 2072  2074     1 
 2072  2075     1 
 2073  2078     1 
 2073  2079     1 
 2073  2080     1 
 2074  2076     1 
 2074  2077     1 
 2075  2081     1 
 2075  2082     1 
 2075  2083     1 
 2076  2078     1 
 2076  2079     1 
 2076  2080     1 
 2077  2084     1 
 2077  2085     1 
 2077  2086     1 
 2078  2081     1 
 2078  2082     1 
 2078  2083     1 
 2079  2081     1 
 2079  2082     1 
 2079  2083     1 
 2080  2087     1 
 2080  2088     1 
 2080  2089     1 
 2081  2084     1 
 2081  2085     1 
 2081  2086     1 
 2082  2084     1 
 2082  2085     1 
 2082  2086     1 
 2083  2090     1 
 2083  2091     1 
 2083  2092     1 
 2084  2087     1 
 2084  2088     1 
 2084  2089     1 
 2085  2087     1 
 2085  2088     1 
 2085  2089     1 
 2086  2093     1 
 2086  2094     1 
 2086  2095     1 
 2087  2090     1 
 2087  2091     1 
 2087  2092     1 
 2088  2090     1 
 2088  2091     1 
 2088  2092     1 
 2089  2096     1 
 2089  2097     1 
 2089  2098     1 
 2090  2093     1 
 2090  2094     1 
 2090  2095     1 
 2091  2093     1 
 2091  2094     1 
 2091  2095     1 
 2092  2099     1 
 2092  2100     1 
 2092  2101     1 
 2093  2096     1 
 2093  2097     1 
 2093  2098     1 
 2094  2096     1 
 2094  2097     1 
 2094  2098     1 
 2096  2099     1 
 2096  2100     1 
 2096  2101     1 
 2097  2099     1 
 2097  2100     1 
 2097  2101     1 
 2102  2109     1 
 2102  2110     1 
 2102  2111     1 
 2103  2106     1 
 2103  2107     1 
 2103  2108     1 
 2104  2106     1 
 2104  2107     1 
 2104  2108     1 
 2105  2112     1 
 2105  2113     1 
 2105  2114     1 
 2106  2109     1 
 2106  2110     1 
 2106  2111     1 
 2107  2109     1 
 2107  2110     1 
 2107  2111     1 
 2108  2115     1 
 2108  2116     1 
 2108  2117     1 
 2109  2112     1 
 2109  2113     1 
 2109  2114     1 
 2110  2112     1 
 2110  2113     1 
 2110  2114     1 
 2111  2118     1 
 2111  2119     1 
 2111  2120     1 
 2112  2115     1 
 2112  2116     1 
 2112  2117     1 
 2113  2115     1 
 2113  2116     1 
 2113  2117     1 
 2114  2121     1 
 2114  2122     1 
 2114  2123     1 
 2115  2118     1 
 2115  2119     1 
 2115  2120     1 
 2116  2118     1 
 2116  2119     1 
 2116  2120     1 
 2117  2124     1 
 2117  2125     1 
 2117  2126     1 
 2118  2121     1 
 2118  2122     1 
 2118  2123     1 
 2119  2121     1 
 2119  2122     1 
 2119  2123     1 
 2120  2127     1 
 2120  2128     1 
 2120  2129     1 
 2121  2124     1 
 2121  2125     1 
 2121  2126     1 
 2122  2124     1 
 2122  2125     1 
 2122  2126     1 
 2123  2130     1 
 2123  2131     1 
 2123  2132     1 
 2124  2127     1 
 2124  2128     1 
 2124  2129     1 
 2125  2127     1 
 2125  2128     1 
 2125  2129     1 
 2126  2133     1 
 2126  2134     1 
 2126  2135     1 
 2127  2130     1 
 2127  2131     1 
 2127  2132     1 
 2128  2130     1 
 2128  2131     1 
 2128  2132     1 
 2129  2136     1 
 2129  2137     1 
 2129  2138     1 
 2130  2133     1 
 2130  2134     1 
 2130  2135     1 
 2131  2133     1 
 2131  2134     1 
 2131  2135     1 
 2132  2139     1 
 2132  2140     1 
 2132  2141     1 
 2133  2136     1 
 2133  2137     1 
 2133  2138     1 
 2134  2136     1 
 2134  2137     1 
 2134  2138     1 
 2135  2142     1 
 2135  2143     1 
 2135  2144     1 
 2136  2139     1 
 2136  2140     1 
 2136  2141     1 
 2137  2139     1 
 2137  2140     1 
 2137  2141     1 
 2139  2142     1 
 2139  2143     1 
 2139  2144     1 
 2140  2142     1 
 2140  2143     1 
 2140  2144     1 
 2145  2162     1 
 2145  2163     1 
 2145  2167     1 
 2146  2150     1 
 2146  2151     1 
 2146  2152     1 
 2146  2154     1 
 2146  2155     1 
 2146  2156     1 
 2146  2158     1 
 2146  2159     1 
 2146  2160     1 
 2146  2164     1 
 2147  2149     1 
 2147  2153     1 
 2147  2157     1 
 2147  2162     1 
 2147  2163     1 
 2147  2167     1 
 2148  2149     1 
 2148  2153     1 
 2148  2157     1 
 2148  2162     1 
 2148  2163     1 
 2148  2167     1 
 2149  2154     1 
 2149  2155     1 
 2149  2156     1 
 2149  2158     1 
 2149  2159     1 
 2149  2160     1 
 2149  2161     1 
 2150  2153     1 
 2150  2157     1 
 2151  2153     1 
 2151  2157     1 
 2152  2153     1 
 2152  2157     1 
 2153  2158     1 
 2153  2159     1 
 2153  2160     1 
 2153  2161     1 
 2154  2157     1 
 2155  2157     1 
 2156  2157     1 
 2157  2161     1 
 2161  2165     1 
 2161  2166     1 
 2161  2168     1 
 2162  2164     1 
 2163  2164     1 
 2164  2170     1 
 2164  2171     1 
 2164  2172     1 
 2165  2169     1 
 2166  2169     1 
 2167  2169     1 
 2168  2173     1 
 2168  2174     1 
 2168  2180     1 
 2169  2175     1 
 2169  2181     1 
 2169  2182     1 
 2169  2183     1 
 2170  2173     1 
 2170  2174     1 
 2170  2180     1 
 2171  2173     1 
 2171  2174     1 
 2171  2180     1 
 2172  2176     1 
 2172  2177     1 
 2172  2184     1 
 2173  2175     1 
 2173  2181     1 
 2173  2182     1 
 2173  2183     1 
 2174  2178     1 
 2174  2179     1 
 2174  2181     1 
 2174  2182     1 
 2174  2183     1 
 2174  2189     1 
 2175  2180     1 
 2175  2190     1 
 2175  2191     1 
 2175  2192     1 
 2176  2178     1 
 2176  2179     1 
 2176  2189     1 
 2177  2193     1 
 2177  2194     1 
 2177  2195     1 
 2178  2190     1 
 2178  2191     1 
 2178  2192     1 
 2179  2190     1 
 2179  2191     1 
 2179  2192     1 
 2180  2185     1 
 2180  2186     1 
 2181  2184     1 
 2182  2184     1 
 2183  2187     1 
 2183  2188     1 
 2183  2236     1 
 2184  2237     1 
 2184  2238     1 
 2184  2239     1 
 2185  2187     1 
 2185  2188     1 
 2185  2236     1 
 2186  2240     1 
 2186  2241     1 
 2186  2242     1 
 2187  2237     1 
 2187  2238     1 
 2187  2239     1 
 2188  2237     1 
 2188  2238     1 
 2188  2239     1 
 2189  2196     1 
 2189  2197     1 
 2189  2198     1 
 2190  2193     1 
 2190  2194     1 
 2190  2195     1 
 2191  2193     1 
 2191  2194     1 
 2191  2195     1 
 2192  2199     1 
 2192  2200     1 
 2192  2201     1 
 2193  2196     1 
 2193  2197     1 
 2193  2198     1 
 2194  2196     1 
 2194  2197     1 
 2194  2198     1 
 2195  2202     1 
 2195  2203     1 
 2195  2204     1 
 2196  2199     1 
 2196  2200     1 
 2196  2201     1 
 2197  2199     1 
 2197  2200     1 
 2197  2201     1 
 2198  2205     1 
 2198  2206     1 
 2198  2207     1 
 2199  2202     1 
 2199  2203     1 
 2199  2204     1 
 2200  2202     1 
 2200  2203     1 
 2200  2204     1 
 2201  2208     1 
 2201  2209     1 
 2202  2205     1 
 2202  2206     1 
 2202  2207     1 
 2203  2205     1 
 2203  2206     1 
 2203  2207     1 
 2204  2210     1 
 2204  2211     1 
 2205  2208     1 
 2205  2209     1 
 2206  2208     1 
 2206  2209     1 
 2207  2212     1 
 2207  2213     1 
 2207  2214     1 
 2208  2210     1 
 2208  2211     1 
 2209  2215     1 
 2209  2216     1 
 2209  2217     1 
 2210  2212     1 
 2210  2213     1 
 2210  2214     1 
 2211  2218     1 
 2211  2219     1 
 2211  2220     1 
 2212  2215     1 
 2212  2216     1 
 2212  2217     1 
 2213  2215     1 
 2213  2216     1 
 2213  2217     1 
 2214  2221     1 
 2214  2222     1 
 2214  2223     1 
 2215  2218     1 
 2215  2219     1 
 2215  2220     1 
 2216  2218     1 
 2216  2219     1 
 2216  2220     1 
 2217  2224     1 
 2217  2225     1 
 2217  2226     1 
 2218  2221     1 
 2218  2222     1 
 2218  2223     1 
 2219  2221     1 
 2219  2222     1 
 2219  2223     1 
 2220  2227     1 
 2220  2228     1 
 2220  2229     1 
 2221  2224     1 
 2221  2225     1 
 2221  2226     1 
 2222  2224     1 
 2222  2225     1 
 2222  2226     1 
 2223  2230     1 
 2223  2231     1 
 2223  2232     1 
 2224  2227     1 
 2224  2228     1 
 2224  2229     1 
 2225  2227     1 
 2225  2228     1 
 2225  2229     1 
 2226  2233     1 
 2226  2234     1 
 2226  2235     1 
 2227  2230     1 
 2227  2231     1 
 2227  2232     1 
 2228  2230     1 
 2228  2231     1 
 2228  2232     1 
 2230  2233     1 
 2230  2234     1 
 2230  2235     1 
 2231  2233     1 
 2231  2234     1 
 2231  2235     1 
 2236  2243     1 
 2236  2244     1 
 2236  2245     1 
 2237  2240     1 
 2237  2241     1 
 2237  2242     1 
 2238  2240     1 
 2238  2241     1 
 2238  2242     1 
 2239  2246     1 
 2239  2247     1 
 2239  2248     1 
 2240  2243     1 
 2240  2244     1 
 2240  2245     1 
 2241  2243     1 
 2241  2244     1 
 2241  2245     1 
 2242  2249     1 
 2242  2250     1 
 2242  2251     1 
 2243  2246     1 
 2243  2247     1 
 2243  2248     1 
 2244  2246     1 
 2244  2247     1 
 2244  2248     1 
 2245  2252     1 
 2245  2253     1 
 2245  2254     1 
 2246  2249     1 
 2246  2250     1 
 2246  2251     1 
 2247  2249     1 
 2247  2250     1 
 2247  2251     1 
 2248  2255     1 
 2248  2256     1 
 2248  2257     1 
 2249  2252     1 
 2249  2253     1 
 2249  2254     1 
 2250  2252     1 
 2250  2253     1 
 2250  2254     1 
 2251  2258     1 
 2251  2259     1 
 2251  2260     1 
 2252  2255     1 
 2252  2256     1 
 2252  2257     1 
 2253  2255     1 
 2253  2256     1 
 2253  2257     1 
 2254  2261     1 
 2254  2262     1 
 2254  2263     1 
 2255  2258     1 
 2255  2259     1 
 2255  2260     1 
 2256  2258     1 
 2256  2259     1 
 2256  2260     1 
 2257  2264     1 
 2257  2265     1 
 2257  2266     1 
 2258  2261     1 
 2258  2262     1 
 2258  2263     1 
 2259  2261     1 
 2259  2262     1 
 2259  2263     1 
 2260  2267     1 
 2260  2268     1 
 2260  2269     1 
 2261  2264     1 
 2261  2265     1 
 2261  2266     1 
 2262  2264     1 
 2262  2265     1 
 2262  2266     1 
 2263  2270     1 
 2263  2271     1 
 2263  2272     1 
 2264  2267     1 
 2264  2268     1 
 2264  2269     1 
 2265  2267     1 
 2265  2268     1 
 2265  2269     1 
 2266  2273     1 
 2266  2274     1 
 2266  2275     1 
 2267  2270     1 
 2267  2271     1 
 2267  2272     1 
 2268  2270     1 
 2268  2271     1 
 2268  2272     1 
 2269  2276     1 
 2269  2277     1 
 2269  2278     1 
 2270  2273     1 
 2270  2274     1 
 2270  2275     1 
 2271  2273     1 
 2271  2274     1 
 2271  2275     1 
 2273  2276     1 
 2273  2277     1 
 2273  2278     1 
 2274  2276     1 
 2274  2277     1 
 2274  2278     1 
 2279  2296     1 
 2279  2297     1 
 2279  2301     1 
 2280  2284     1 
 2280  2285     1 
 2280  2286     1 
 2280  2288     1 
 2280  2289     1 
 2280  2290     1 
 2280  2292     1 
 2280  2293     1 
 2280  2294     1 
 2280  2298     1 
 2281  2283     1 
 2281  2287     1 
 2281  2291     1 
 2281  2296     1 
 2281  2297     1 
 2281  2301     1 
 2282  2283     1 
 2282  2287     1 
 2282  2291     1 
 2282  2296     1 
 2282  2297     1 
 2282  2301     1 
 2283  2288     1 
 2283  2289     1 
 2283  2290     1 
 2283  2292     1 
 2283  2293     1 
 2283  2294     1 
 2283  2295     1 
 2284  2287     1 
 2284  2291     1 
 2285  2287     1 
 2285  2291     1 
 2286  2287     1 
 2286  2291     1 
 2287  2292     1 
 2287  2293     1 
 2287  2294     1 
 2287  2295     1 
 2288  2291     1 
 2289  2291     1 
 2290  2291     1 
 2291  2295     1 
 2295  2299     1 
 2295  2300     1 
 2295  2302     1 
 2296  2298     1 
 2297  2298     1 
 2298  2304     1 
 2298  2305     1 
 2298  2306     1 
 2299  2303     1 
 2300  2303     1 
 2301  2303     1 
 2302  2307     1 
 2302  2308     1 
 2302  2314     1 
 2303  2309     1 
 2303  2315     1 
 2303  2316     1 
 2303  2317     1 
 2304  2307     1 
 2304  2308     1 
 2304  2314     1 
 2305  2307     1 
 2305  2308     1 
 2305  2314     1 
 2306  2310     1 
 2306  2311     1 
 2306  2318     1 
 2307  2309     1 
 2307  2315     1 
 2307  2316     1 
 2307  2317     1 
 2308  2312     1 
 2308  2313     1 
 2308  2315     1 
 2308  2316     1 
 2308  2317     1 
 2308  2323     1 
 2309  2314     1 
 2309  2324     1 
 2309  2325     1 
 2309  2326     1 
 2310  2312     1 
 2310  2313     1 
 2310  2323     1 
 2311  2327     1 
 2311  2328     1 
 2311  2329     1 
 2312  2324     1 
 2312  2325     1 
 2312  2326     1 
 2313  2324     1 
 2313  2325     1 
 2313  2326     1 
 2314  2319     1 
 2314  2320     1 
 2315  2318     1 
 2316  2318     1 
 2317  2321     1 
 2317  2322     1 
 2317  2370     1 
 2318  2371     1 
 2318  2372     1 
 2318  2373     1 
 2319  2321     1 
 2319  2322     1 
 2319  2370     1 
 2320  2374     1 
 2320  2375     1 
 2320  2376     1 
 2321  2371     1 
 2321  2372     1 
 2321  2373     1 
 2322  2371     1 
 2322  2372     1 
 2322  2373     1 
 2323  2330     1 
 2323  2331     1 
 2323  2332     1 
 2324  2327     1 
 2324  2328     1 
 2324  2329     1 
 2325  2327     1 
 2325  2328     1 
 2325  2329     1 
 2326  2333     1 
 2326  2334     1 
 2326  2335     1 
 2327  2330     1 
 2327  2331     1 
 2327  2332     1 
 2328  2330     1 
 2328  2331     1 
 2328  2332     1 
 2329  2336     1 
 2329  2337     1 
 2329  2338     1 
 2330  2333     1 
 2330  2334     1 
 2330  2335     1 
 2331  2333     1 
 2331  2334     1 
 2331  2335     1 
 2332  2339     1 
 2332  2340     1 
 2332  2341     1 
 2333  2336     1 
 2333  2337     1 
 2333  2338     1 
 2334  2336     1 
 2334  2337     1 
 2334  2338     1 
 2335  2342     1 
 2335  2343     1 
 2336  2339     1 
 2336  2340     1 
 2336  2341     1 
 2337  2339     1 
 2337  2340     1 
 2337  2341     1 
 2338  2344     1 
 2338  2345     1 
 2339  2342     1 
 2339  2343     1 
 2340  2342     1 
 2340  2343     1 
 2341  2346     1 
 2341  2347     1 
 2341  2348     1 
 2342  2344     1 
 2342  2345     1 
 2343  2349     1 
 2343  2350     1 
 2343  2351     1 
 2344  2346     1 
 2344  2347     1 
 2344  2348     1 
 2345  2352     1 
 2345  2353     1 
 2345  2354     1 
 2346  2349     1 
 2346  2350     1 
 2346  2351     1 
 2347  2349     1 
 2347  2350     1 
 2347  2351     1 
 2348  2355     1 
 2348  2356     1 
 2348  2357     1 
 2349  2352     1 
 2349  2353     1 
 2349  2354     1 
 2350  2352     1 
 2350  2353     1 
 2350  2354     1 
 2351  2358     1 
 2351  2359     1 
 2351  2360     1 
 2352  2355     1 
 2352  2356     1 
 2352  2357     1 
 2353  2355     1 
 2353  2356     1 
 2353  2357     1 
 2354  2361     1 
 2354  2362     1 
 2354  2363     1 
 2355  2358     1 
 2355  2359     1 
 2355  2360     1 
 2356  2358     1 
 2356  2359     1 
 2356  2360     1 
 2357  2364     1 
 2357  2365     1 
 2357  2366     1 
 2358  2361     1 
 2358  2362     1 
 2358  2363     1 
 2359  2361     1 
 2359  2362     1 
 2359  2363     1 
 2360  2367     1 
 2360  2368     1 
 2360  2369     1 
 2361  2364     1 
 2361  2365     1 
 2361  2366     1 
 2362  2364     1 
 2362  2365     1 
 2362  2366     1 
 2364  2367     1 
 2364  2368     1 
 2364  2369     1 
 2365  2367     1 
 2365  2368     1 
 2365  2369     1 
 2370  2377     1 
 2370  2378     1 
 2370  2379     1 
 2371  2374     1 
 2371  2375     1 
 2371  2376     1 
 2372  2374     1 
 2372  2375     1 
 2372  2376     1 
 2373  2380     1 
 2373  2381     1 
 2373  2382     1 
 2374  2377     1 
 2374  2378     1 
 2374  2379     1 
 2375  2377     1 
 2375  2378     1 
 2375  2379     1 
 2376  2383     1 
 2376  2384     1 
 2376  2385     1 
 2377  2380     1 
 2377  2381     1 
 2377  2382     1 
 2378  2380     1 
 2378  2381     1 
 2378  2382     1 
 2379  2386     1 
 2379  2387     1 
 2379  2388     1 
 2380  2383     1 
 2380  2384     1 
 2380  2385     1 
 2381  2383     1 
 2381  2384     1 
 2381  2385     1 
 2382  2389     1 
 2382  2390     1 
 2382  2391     1 
 2383  2386     1 
 2383  2387     1 
 2383  2388     1 
 2384  2386     1 
 2384  2387     1 
 2384  2388     1 
 2385  2392     1 
 2385  2393     1 
 2385  2394     1 
 2386  2389     1 
 2386  2390     1 
 2386  2391     1 
 2387  2389     1 
 2387  2390     1 
 2387  2391     1 
 2388  2395     1 
 2388  2396     1 
 2388  2397     1 
 2389  2392     1 
 2389  2393     1 
 2389  2394     1 
 2390  2392     1 
 2390  2393     1 
 2390  2394     1 
 2391  2398     1 
 2391  2399     1 
 2391  2400     1 
 2392  2395     1 
 2392  2396     1 
 2392  2397     1 
 2393  2395     1 
 2393  2396     1 
 2393  2397     1 
 2394  2401     1 
 2394  2402     1 
 2394  2403     1 
 2395  2398     1 
 2395  2399     1 
 2395  2400     1 
 2396  2398     1 
 2396  2399     1 
 2396  2400     1 
 2397  2404     1 
 2397  2405     1 
 2397  2406     1 
 2398  2401     1 
 2398  2402     1 
 2398  2403     1 
 2399  2401     1 
 2399  2402     1 
 2399  2403     1 
 2400  2407     1 
 2400  2408     1 
 2400  2409     1 
 2401  2404     1 
 2401  2405     1 
 2401  2406     1 
 2402  2404     1 
 2402  2405     1 
 2402  2406     1 
 2403  2410     1 
 2403  2411     1 
 2403  2412     1 
 2404  2407     1 
 2404  2408     1 
 2404  2409     1 
 2405  2407     1 
 2405  2408     1 
 2405  2409     1 
 2407  2410     1 
 2407  2411     1 
 2407  2412     1 
 2408  2410     1 
 2408  2411     1 
 2408  2412     1 
 2413  2430     1 
 2413  2431     1 
 2413  2435     1 
 2414  2418     1 
 2414  2419     1 
 2414  2420     1 
 2414  2422     1 
 2414  2423     1 
 2414  2424     1 
 2414  2426     1 
 2414  2427     1 
 2414  2428     1 
 2414  2432     1 
 2415  2417     1 
 2415  2421     1 
 2415  2425     1 
 2415  2430     1 
 2415  2431     1 
 2415  2435     1 
 2416  2417     1 
 2416  2421     1 
 2416  2425     1 
 2416  2430     1 
 2416  2431     1 
 2416  2435     1 
 2417  2422     1 
 2417  2423     1 
 2417  2424     1 
 2417  2426     1 
 2417  2427     1 
 2417  2428     1 
 2417  2429     1 
 2418  2421     1 
 2418  2425     1 
 2419  2421     1 
 2419  2425     1 
 2420  2421     1 
 2420  2425     1 
 2421  2426     1 
 2421  2427     1 
 2421  2428     1 
 2421  2429     1 
 2422  2425     1 
 2423  2425     1 
 2424  2425     1 
 2425  2429     1 
 2429  2433     1 
 2429  2434     1 
 2429  2436     1 
 2430  2432     1 
 2431  2432     1 
 2432  2438     1 
 2432  2439     1 
 2432  2440     1 
 2433  2437     1 
 2434  2437     1 
 2435  2437     1 
 2436  2441     1 
 2436  2442     1 
 2436  2448     1 
 2437  2443     1 
 2437  2449     1 
 2437  2450     1 
 2437  2451     1 
 2438  2441     1 
 2438  2442     1 
 2438  2448     1 
 2439  2441     1 
 2439  2442     1 
 2439  2448     1 
 2440  2444     1 
 2440  2445     1 
 2440  2452     1 
 2441  2443     1 
 2441  2449     1 
 2441  2450     1 
 2441  2451     1 
 2442  2446     1 
 2442  2447     1 
 2442  2449     1 
 2442  2450     1 
 2442  2451     1 
 2442  2457     1 
 2443  2448     1 
 2443  2458     1 
 2443  2459     1 
 2443  2460     1 
 2444  2446     1 
 2444  2447     1 
 2444  2457     1 
 2445  2461     1 
 2445  2462     1 
 2445  2463     1 
 2446  2458     1 
 2446  2459     1 
 2446  2460     1 
 2447  2458     1 
 2447  2459     1 
 2447  2460     1 
 2448  2453     1 
 2448  2454     1 
 2449  2452     1 
 2450  2452     1 
 2451  2455     1 
 2451  2456     1 
 2451  2504     1 
 2452  2505     1 
 2452  2506     1 
 2452  2507     1 
 2453  2455     1 
 2453  2456     1 
 2453  2504     1 
 2454  2508     1 
 2454  2509     1 
 2454  2510     1 
 2455  2505     1 
 2455  2506     1 
 2455  2507     1 
 2456  2505     1 
 2456  2506     1 
 2456  2507     1 
 2457  2464     1 
 2457  2465     1 
 2457  2466     1 
 2458  2461     1 
 2458  2462     1 
 2458  2463     1 
 2459  2461     1 
 2459  2462     1 
 2459  2463     1 
 2460  2467     1 
 2460  2468     1 
 2460  2469     1 
 2461  2464     1 
 2461  2465     1 
 2461  2466     1 
 2462  2464     1 
 2462  2465     1 
 2462  2466     1 
 2463  2470     1 
 2463  2471     1 
 2463  2472     1 
 2464  2467     1 
 2464  2468     1 
 2464  2469     1 
 2465  2467     1 
 2465  2468     1 
 2465  2469     1 
 2466  2473     1 
 2466  2474     1 
 2466  2475     1 
 2467  2470     1 
 2467  2471     1 
 2467  2472     1 
 2468  2470     1 
 2468  2471     1 
 2468  2472     1 
 2469  2476     1 
 2469  2477     1 
 2470  2473     1 
 2470  2474     1 
 2470  2475     1 
 2471  2473     1 
 2471  2474     1 
 2471  2475     1 
 2472  2478     1 
 2472  2479     1 
 2473  2476     1 
 2473  2477     1 
 2474  2476     1 
 2474  2477     1 
 2475  2480     1 
 2475  2481     1 
 2475  2482     1 
 2476  2478     1 
 2476  2479     1 
 2477  2483     1 
 2477  2484     1 
 2477  2485     1 
 2478  2480     1 
 2478  2481     1 
 2478  2482     1 
 2479  2486     1 
 2479  2487     1 
 2479  2488     1 
 2480  2483     1 
 2480  2484     1 
 2480  2485     1 
 2481  2483     1 
 2481  2484     1 
 2481  2485     1 
 2482  2489     1 
 2482  2490     1 
 2482  2491     1 
 2483  2486     1 
 2483  2487     1 
 2483  2488     1 
 2484  2486     1 
 2484  2487     1 
 2484  2488     1 
 2485  2492     1 
 2485  2493     1 
 2485  2494     1 
 2486  2489     1 
 2486  2490     1 
 2486  2491     1 
 2487  2489     1 
 2487  2490     1 
 2487  2491     1 
 2488  2495     1 
 2488  2496     1 
 2488  2497     1 
 2489  2492     1 
 2489  2493     1 
 2489  2494     1 
 2490  2492     1 
 2490  2493     1 
 2490  2494     1 
 2491  2498     1 
 2491  2499     1 
 2491  2500     1 
 2492  2495     1 
 2492  2496     1 
 2492  2497     1 
 2493  2495     1 
 2493  2496     1 
 2493  2497     1 
 2494  2501     1 
 2494  2502     1 
 2494  2503     1 
 2495  2498     1 
 2495  2499     1 
 2495  2500     1 
 2496  2498     1 
 2496  2499     1 
 2496  2500     1 
 2498  2501     1 
 2498  2502     1 
 2498  2503     1 
 2499  2501     1 
 2499  2502     1 
 2499  2503     1 
 2504  2511     1 
 2504  2512     1 
 2504  2513     1 
 2505  2508     1 
 2505  2509     1 
 2505  2510     1 
 2506  2508     1 
 2506  2509     1 
 2506  2510     1 
 2507  2514     1 
 2507  2515     1 
 2507  2516     1 
 2508  2511     1 
 2508  2512     1 
 2508  2513     1 
 2509  2511     1 
 2509  2512     1 
 2509  2513     1 
 2510  2517     1 
 2510  2518     1 
 2510  2519     1 
 2511  2514     1 
 2511  2515     1 
 2511  2516     1 
 2512  2514     1 
 2512  2515     1 
 2512  2516     1 
 2513  2520     1 
 2513  2521     1 
 2513  2522     1 
 2514  2517     1 
 2514  2518     1 
 2514  2519     1 
 2515  2517     1 
 2515  2518     1 
 2515  2519     1 
 2516  2523     1 
 2516  2524     1 
 2516  2525     1 
 2517  2520     1 
 2517  2521     1 
 2517  2522     1 
 2518  2520     1 
 2518  2521     1 
 2518  2522     1 
 2519  2526     1 
 2519  2527     1 
 2519  2528     1 
 2520  2523     1 
 2520  2524     1 
 2520  2525     1 
 2521  2523     1 
 2521  2524     1 
 2521  2525     1 
 2522  2529     1 
 2522  2530     1 
 2522  2531     1 
 2523  2526     1 
 2523  2527     1 
 2523  2528     1 
 2524  2526     1 
 2524  2527     1 
 2524  2528     1 
 2525  2532     1 
 2525  2533     1 
 2525  2534     1 
 2526  2529     1 
 2526  2530     1 
 2526  2531     1 
 2527  2529     1 
 2527  2530     1 
 2527  2531     1 
 2528  2535     1 
 2528  2536     1 
 2528  2537     1 
 2529  2532     1 
 2529  2533     1 
 2529  2534     1 
 2530  2532     1 
 2530  2533     1 
 2530  2534     1 
 2531  2538     1 
 2531  2539     1 
 2531  2540     1 
 2532  2535     1 
 2532  2536     1 
 2532  2537     1 
 2533  2535     1 
 2533  2536     1 
 2533  2537     1 
 2534  2541     1 
 2534  2542     1 
 2534  2543     1 
 2535  2538     1 
 2535  2539     1 
 2535  2540     1 
 2536  2538     1 
 2536  2539     1 
 2536  2540     1 
 2537  2544     1 
 2537  2545     1 
 2537  2546     1 
 2538  2541     1 
 2538  2542     1 
 2538  2543     1 
 2539  2541     1 
 2539  2542     1 
 2539  2543     1 
 2541  2544     1 
 2541  2545     1 
 2541  2546     1 
 2542  2544     1 
 2542  2545     1 
 2542  2546     1 
 2547  2564     1 
 2547  2565     1 
 2547  2569     1 
 2548  2552     1 
 2548  2553     1 
 2548  2554     1 
 2548  2556     1 
 2548  2557     1 
 2548  2558     1 
 2548  2560     1 
 2548  2561     1 
 2548  2562     1 
 2548  2566     1 
 2549  2551     1 
 2549  2555     1 
 2549  2559     1 
 2549  2564     1 
 2549  2565     1 
 2549  2569     1 
 2550  2551     1 
 2550  2555     1 
 2550  2559     1 
 2550  2564     1 
 2550  2565     1 
 2550  2569     1 
 2551  2556     1 
 2551  2557     1 
 2551  2558     1 
 2551  2560     1 
 2551  2561     1 
 2551  2562     1 
 2551  2563     1 
 2552  2555     1 
 2552  2559     1 
 2553  2555     1 
 2553  2559     1 
 2554  2555     1 
 2554  2559     1 
 2555  2560     1 
 2555  2561     1 
 2555  2562     1 
 2555  2563     1 
 2556  2559     1 
 2557  2559     1 
 2558  2559     1 
 2559  2563     1 
 2563  2567     1 
 2563  2568     1 
 2563  2570     1 
 2564  2566     1 
 2565  2566     1 
 2566  2572     1 
 2566  2573     1 
 2566  2574     1 
 2567  2571     1 
 2568  2571     1 
 2569  2571     1 
 2570  2575     1 
 2570  2576     1 
 2570  2582     1 
 2571  2577     1 
 2571  2583     1 
 2571  2584     1 
 2571  2585     1 
 2572  2575     1 
 2572  2576     1 
 2572  2582     1 
 2573  2575     1 
 2573  2576     1 
 2573  2582     1 
 2574  2578     1 
 2574  2579     1 
 2574  2586     1 
 2575  2577     1 
 2575  2583     1 
 2575  2584     1 
 2575  2585     1 
 2576  2580     1 
 2576  2581     1 
 2576  2583     1 
 2576  2584     1 
 2576  2585     1 
 2576  2591     1 
 2577  2582     1 
 2577  2592     1 
 2577  2593     1 
 2577  2594     1 
 2578  2580     1 
 2578  2581     1 
 2578  2591     1 
 2579  2595     1 
 2579  2596     1 
 2579  2597     1 
 2580  2592     1 
 2580  2593     1 
 2580  2594     1 
 2581  2592     1 
 2581  2593     1 
 2581  2594     1 
 2582  2587     1 
 2582  2588     1 
 2583  2586     1 
 2584  2586     1 
 2585  2589     1 
 2585  2590     1 
 2585  2638     1 
 2586  2639     1 
 2586  2640     1 
 2586  2641     1 
 2587  2589     1 
 2587  2590     1 
 2587  2638     1 
 2588  2642     1 
 2588  2643     1 
 2588  2644     1 
 2589  2639     1 
 2589  2640     1 
 2589  2641     1 
 2590  2639     1 
 2590  2640     1 
 2590  2641     1 
 2591  2598     1 
 2591  2599     1 
 2591  2600     1 
 2592  2595     1 
 2592  2596     1 
 2592  2597     1 
 2593  2595     1 
 2593  2596     1 
 2593  2597     1 
 2594  2601     1 
 2594  2602     1 
 2594  2603     1 
 2595  2598     1 
 2595  2599     1 
 2595  2600     1 
 2596  2598     1 
 2596  2599     1 
 2596  2600     1 
 2597  2604     1 
 2597  2605     1 
 2597  2606     1 
 2598  2601     1 
 2598  2602     1 
 2598  2603     1 
 2599  2601     1 
 2599  2602     1 
 2599  2603     1 
 2600  2607     1 
 2600  2608     1 
 2600  2609     1 
 2601  2604     1 
 2601  2605     1 
 2601  2606     1 
 2602  2604     1 
 2602  2605     1 
 2602  2606     1 
 2603  2610     1 
 2603  2611     1 
 2604  2607     1 
 2604  2608     1 
 2604  2609     1 
 2605  2607     1 
 2605  2608     1 
 2605  2609     1 
 2606  2612     1 
 2606  2613     1 
 2607  2610     1 
 2607  2611     1 
 2608  2610     1 
 2608  2611     1 
 2609  2614     1 
 2609  2615     1 
 2609  2616     1 
 2610  2612     1 
 2610  2613     1 
 2611  2617     1 
 2611  2618     1 
 2611  2619     1 
 2612  2614     1 
 2612  2615     1 
 2612  2616     1 
 2613  2620     1 
 2613  2621     1 
 2613  2622     1 
 2614  2617     1 
 2614  2618     1 
 2614  2619     1 
 2615  2617     1 
 2615  2618     1 
 2615  2619     1 
 2616  2623     1 
 2616  2624     1 
 2616  2625     1 
 2617  2620     1 
 2617  2621     1 
 2617  2622     1 
 2618  2620     1 
 2618  2621     1 
 2618  2622     1 
 2619  2626     1 
 2619  2627     1 
 2619  2628     1 
 2620  2623     1 
 2620  2624     1 
 2620  2625     1 
 2621  2623     1 
 2621  2624     1 
 2621  2625     1 
 2622  2629     1 
 2622  2630     1 
 2622  2631     1 
 2623  2626     1 
 2623  2627     1 
 2623  2628     1 
 2624  2626     1 
 2624  2627     1 
 2624  2628     1 
 2625  2632     1 
 2625  2633     1 
 2625  2634     1 
 2626  2629     1 
 2626  2630     1 
 2626  2631     1 
 2627  2629     1 
 2627  2630     1 
 2627  2631     1 
 2628  2635     1 
 2628  2636     1 
 2628  2637     1 
 2629  2632     1 
 2629  2633     1 
 2629  2634     1 
 2630  2632     1 
 2630  2633     1 
 2630  2634     1 
 2632  2635     1 
 2632  2636     1 
 2632  2637     1 
 2633  2635     1 
 2633  2636     1 
 2633  2637     1 
 2638  2645     1 
 2638  2646     1 
 2638  2647     1 
 2639  2642     1 
 2639  2643     1 
 2639  2644     1 
 2640  2642     1 
 2640  2643     1 
 2640  2644     1 
 2641  2648     1 
 2641  2649     1 
 2641  2650     1 
 2642  2645     1 
 2642  2646     1 
 2642  2647     1 
 2643  2645     1 
 2643  2646     1 
 2643  2647     1 
 2644  2651     1 
 2644  2652     1 
 2644  2653     1 
 2645  2648     1 
 2645  2649     1 
 2645  2650     1 
 2646  2648     1 
 2646  2649     1 
 2646  2650     1 
 2647  2654     1 
 2647  2655     1 
 2647  2656     1 
 2648  2651     1 
 2648  2652     1 
 2648  2653     1 
 2649  2651     1 
 2649  2652     1 
 2649  2653     1 
 2650  2657     1 
 2650  2658     1 
 2650  2659     1 
 2651  2654     1 
 2651  2655     1 
 2651  2656     1 
 2652  2654     1 
 2652  2655     1 
 2652  2656     1 
 2653  2660     1 
 2653  2661     1 
 2653  2662     1 
 2654  2657     1 
 2654  2658     1 
 2654  2659     1 
 2655  2657     1 
 2655  2658     1 
 2655  2659     1 
 2656  2663     1 
 2656  2664     1 
 2656  2665     1 
 2657  2660     1 
 2657  2661     1 
 2657  2662     1 
 2658  2660     1 
 2658  2661     1 
 2658  2662     1 
 2659  2666     1 
 2659  2667     1 
 2659  2668     1 
 2660  2663     1 
 2660  2664     1 
 2660  2665     1 
 2661  2663     1 
 2661  2664     1 
 2661  2665     1 
 2662  2669     1 
 2662  2670     1 
 2662  2671     1 
 2663  2666     1 
 2663  2667     1 
 2663  2668     1 
 2664  2666     1 
 2664  2667     1 
 2664  2668     1 
 2665  2672     1 
 2665  2673     1 
 2665  2674     1 
 2666  2669     1 
 2666  2670     1 
 2666  2671     1 
 2667  2669     1 
 2667  2670     1 
 2667  2671     1 
 2668  2675     1 
 2668  2676     1 
 2668  2677     1 
 2669  2672     1 
 2669  2673     1 
 2669  2674     1 
 2670  2672     1 
 2670  2673     1 
 2670  2674     1 
 2671  2678     1 
 2671  2679     1 
 2671  2680     1 
 2672  2675     1 
 2672  2676     1 
 2672  2677     1 
 2673  2675     1 
 2673  2676     1 
 2673  2677     1 
 2675  2678     1 
 2675  2679     1 
 2675  2680     1 
 2676  2678     1 
 2676  2679     1 
 2676  2680     1 
 2681  2698     1 
 2681  2699     1 
 2681  2703     1 
 2682  2686     1 
 2682  2687     1 
 2682  2688     1 
 2682  2690     1 
 2682  2691     1 
 2682  2692     1 
 2682  2694     1 
 2682  2695     1 
 2682  2696     1 
 2682  2700     1 
 2683  2685     1 
 2683  2689     1 
 2683  2693     1 
 2683  2698     1 
 2683  2699     1 
 2683  2703     1 
 2684  2685     1 
 2684  2689     1 
 2684  2693     1 
 2684  2698     1 
 2684  2699     1 
 2684  2703     1 
 2685  2690     1 
 2685  2691     1 
 2685  2692     1 
 2685  2694     1 
 2685  2695     1 
 2685  2696     1 
 2685  2697     1 
 2686  2689     1 
 2686  2693     1 
 2687  2689     1 
 2687  2693     1 
 2688  2689     1 
 2688  2693     1 
 2689  2694     1 
 2689  2695     1 
 2689  2696     1 
 2689  2697     1 
 2690  2693     1 
 2691  2693     1 
 2692  2693     1 
 2693  2697     1 
 2697  2701     1 
 2697  2702     1 
 2697  2704     1 
 2698  2700     1 
 2699  2700     1 
 2700  2706     1 
 2700  2707     1 
 2700  2708     1 
 2701  2705     1 
 2702  2705     1 
 2703  2705     1 
 2704  2709     1 
 2704  2710     1 
 2704  2716     1 
 2705  2711     1 
 2705  2717     1 
 2705  2718     1 
 2705  2719     1 
 2706  2709     1 
 2706  2710     1 
 2706  2716     1 
 2707  2709     1 
 2707  2710     1 
 2707  2716     1 
 2708  2712     1 
 2708  2713     1 
 2708  2720     1 
 2709  2711     1 
 2709  2717     1 
 2709  2718     1 
 2709  2719     1 
 2710  2714     1 
 2710  2715     1 
 2710  2717     1 
 2710  2718     1 
 2710  2719     1 
 2710  2725     1 
 2711  2716     1 
 2711  2726     1 
 2711  2727     1 
 2711  2728     1 
 2712  2714     1 
 2712  2715     1 
 2712  2725     1 
 2713  2729     1 
 2713  2730     1 
 2713  2731     1 
 2714  2726     1 
 2714  2727     1 
 2714  2728     1 
 2715  2726     1 
 2715  2727     1 
 2715  2728     1 
 2716  2721     1 
 2716  2722     1 
 2717  2720     1 
 2718  2720     1 
 2719  2723     1 
 2719  2724     1 
 2719  2772     1 
 2720  2773     1 
 2720  2774     1 
 2720  2775     1 
 2721  2723     1 
 2721  2724     1 
 2721  2772     1 
 2722  2776     1 
 2722  2777     1 
 2722  2778     1 
 2723  2773     1 
 2723  2774     1 
 2723  2775     1 
 2724  2773     1 
 2724  2774     1 
 2724  2775     1 
 2725  2732     1 
 2725  2733     1 
 2725  2734     1 
 2726  2729     1 
 2726  2730     1 
 2726  2731     1 
 2727  2729     1 
 2727  2730     1 
 2727  2731     1 
 2728  2735     1 
 2728  2736     1 
 2728  2737     1 
 2729  2732     1 
 2729  2733     1 
 2729  2734     1 
 2730  2732     1 
 2730  2733     1 
 2730  2734     1 
 2731  2738     1 
 2731  2739     1 
 2731  2740     1 
 2732  2735     1 
 2732  2736     1 
 2732  2737     1 
 2733  2735     1 
 2733  2736     1 
 2733  2737     1 
 2734  2741     1 
 2734  2742     1 
 2734  2743     1 
 2735  2738     1 
 2735  2739     1 
 2735  2740     1 
 2736  2738     1 
 2736  2739     1 
 2736  2740     1 
 2737  2744     1 
 2737  2745     1 
 2738  2741     1 
 2738  2742     1 
 2738  2743     1 
 2739  2741     1 
 2739  2742     1 
 2739  2743     1 
 2740  2746     1 
 2740  2747     1 
 2741  2744     1 
 2741  2745     1 
 2742  2744     1 
 2742  2745     1 
 2743  2748     1 
 2743  2749     1 
 2743  2750     1 
 2744  2746     1 
 2744  2747     1 
 2745  2751     1 
 2745  2752     1 
 2745  2753     1 
 2746  2748     1 
 2746  2749     1 
 2746  2750     1 
 2747  2754     1 
 2747  2755     1 
 2747  2756     1 
 2748  2751     1 
 2748  2752     1 
 2748  2753     1 
 2749  2751     1 
 2749  2752     1 
 2749  2753     1 
 2750  2757     1 
 2750  2758     1 
 2750  2759     1 
 2751  2754     1 
 2751  2755     1 
 2751  2756     1 
 2752  2754     1 
 2752  2755     1 
 2752  2756     1 
 2753  2760     1 
 2753  2761     1 
 2753  2762     1 
 2754  2757     1 
 2754  2758     1 
 2754  2759     1 
 2755  2757     1 
 2755  2758     1 
 2755  2759     1 
 2756  2763     1 
 2756  2764     1 
 2756  2765     1 
 2757  2760     1 
 2757  2761     1 
 2757  2762     1 
 2758  2760     1 
 2758  2761     1 
 2758  2762     1 
 2759  2766     1 
 2759  2767     1 
 2759  2768     1 
 2760  2763     1 
 2760  2764     1 
 2760  2765     1 
 2761  2763     1 
 2761  2764     1 
 2761  2765     1 
 2762  2769     1 
 2762  2770     1 
 2762  2771     1 
 2763  2766     1 
 2763  2767     1 
 2763  2768     1 
 2764  2766     1 
 2764  2767     1 
 2764  2768     1 
 2766  2769     1 
 2766  2770     1 
 2766  2771     1 
 2767  2769     1 
 2767  2770     1 
 2767  2771     1 
 2772  2779     1 
 2772  2780     1 
 2772  2781     1 
 2773  2776     1 
 2773  2777     1 
 2773  2778     1 
 2774  2776     1 
 2774  2777     1 
 2774  2778     1 
 2775  2782     1 
 2775  2783     1 
 2775  2784     1 
 2776  2779     1 
 2776  2780     1 
 2776  2781     1 
 2777  2779     1 
 2777  2780     1 
 2777  2781     1 
 2778  2785     1 
 2778  2786     1 
 2778  2787     1 
 2779  2782     1 
 2779  2783     1 
 2779  2784     1 
 2780  2782     1 
 2780  2783     1 
 2780  2784     1 
 2781  2788     1 
 2781  2789     1 
 2781  2790     1 
 2782  2785     1 
 2782  2786     1 
 2782  2787     1 
 2783  2785     1 
 2783  2786     1 
 2783  2787     1 
 2784  2791     1 
 2784  2792     1 
 2784  2793     1 
 2785  2788     1 
 2785  2789     1 
 2785  2790     1 
 2786  2788     1 
 2786  2789     1 
 2786  2790     1 
 2787  2794     1 
 2787  2795     1 
 2787  2796     1 
 2788  2791     1 
 2788  2792     1 
 2788  2793     1 
 2789  2791     1 
 2789  2792     1 
 2789  2793     1 
 2790  2797     1 
 2790  2798     1 
 2790  2799     1 
 2791  2794     1 
 2791  2795     1 
 2791  2796     1 
 2792  2794     1 
 2792  2795     1 
 2792  2796     1 
 2793  2800     1 
 2793  2801     1 
 2793  2802     1 
 2794  2797     1 
 2794  2798     1 
 2794  2799     1 
 2795  2797     1 
 2795  2798     1 
 2795  2799     1 
 2796  2803     1 
 2796  2804     1 
 2796  2805     1 
 2797  2800     1 
 2797  2801     1 
 2797  2802     1 
 2798  2800     1 
 2798  2801     1 
 2798  2802     1 
 2799  2806     1 
 2799  2807     1 
 2799  2808     1 
 2800  2803     1 
 2800  2804     1 
 2800  2805     1 
 2801  2803     1 
 2801  2804     1 
 2801  2805     1 
 2802  2809     1 
 2802  2810     1 
 2802  2811     1 
 2803  2806     1 
 2803  2807     1 
 2803  2808     1 
 2804  2806     1 
 2804  2807     1 
 2804  2808     1 
 2805  2812     1 
 2805  2813     1 
 2805  2814     1 
 2806  2809     1 
 2806  2810     1 
 2806  2811     1 
 2807  2809     1 
 2807  2810     1 
 2807  2811     1 
 2809  2812     1 
 2809  2813     1 
 2809  2814     1 
 2810  2812     1 
 2810  2813     1 
 2810  2814     1 
 2815  2832     1 
 2815  2833     1 
 2815  2837     1 
 2816  2820     1 
 2816  2821     1 
 2816  2822     1 
 2816  2824     1 
 2816  2825     1 
 2816  2826     1 
 2816  2828     1 
 2816  2829     1 
 2816  2830     1 
 2816  2834     1 
 2817  2819     1 
 2817  2823     1 
 2817  2827     1 
 2817  2832     1 
 2817  2833     1 
 2817  2837     1 
 2818  2819     1 
 2818  2823     1 
 2818  2827     1 
 2818  2832     1 
 2818  2833     1 
 2818  2837     1 
 2819  2824     1 
 2819  2825     1 
 2819  2826     1 
 2819  2828     1 
 2819  2829     1 
 2819  2830     1 
 2819  2831     1 
 2820  2823     1 
 2820  2827     1 
 2821  2823     1 
 2821  2827     1 
 2822  2823     1 
 2822  2827     1 
 2823  2828     1 
 2823  2829     1 
 2823  2830     1 
 2823  2831     1 
 2824  2827     1 
 2825  2827     1 
 2826  2827     1 
 2827  2831     1 
 2831  2835     1 
 2831  2836     1 
 2831  2838     1 
 2832  2834     1 
 2833  2834     1 
 2834  2840     1 
 2834  2841     1 
 2834  2842     1 
 2835  2839     1 
 2836  2839     1 
 2837  2839     1 
 2838  2843     1 
 2838  2844     1 
 2838  2850     1 
 2839  2845     1 
 2839  2851     1 
 2839  2852     1 
 2839  2853     1 
 2840  2843     1 
 2840  2844     1 
 2840  2850     1 
 2841  2843     1 
 2841  2844     1 
 2841  2850     1 
 2842  2846     1 
 2842  2847     1 
 2842  2854     1 
 2843  2845     1 
 2843  2851     1 
 2843  2852     1 
 2843  2853     1 
 2844  2848     1 
 2844  2849     1 
 2844  2851     1 
 2844  2852     1 
 2844  2853     1 
 2844  2859     1 
 2845  2850     1 
 2845  2860     1 
 2845  2861     1 
 2845  2862     1 
 2846  2848     1 
 2846  2849     1 
 2846  2859     1 
 2847  2863     1 
 2847  2864     1 
 2847  2865     1 
 2848  2860     1 
 2848  2861     1 
 2848  2862     1 
 2849  2860     1 
 2849  2861     1 
 2849  2862     1 
 2850  2855     1 
 2850  2856     1 
 2851  2854     1 
 2852  2854     1 
 2853  2857     1 
 2853  2858     1 
 2853  2906     1 
 2854  2907     1 
 2854  2908     1 
 2854  2909     1 
 2855  2857     1 
 2855  2858     1 
 2855  2906     1 
 2856  2910     1 
 2856  2911     1 
 2856  2912     1 
 2857  2907     1 
 2857  2908     1 
 2857  2909     1 
 2858  2907     1 
 2858  2908     1 
 2858  2909     1 
 2859  2866     1 
 2859  2867     1 
 2859  2868     1 
 2860  2863     1 
 2860  2864     1 
 2860  2865     1 
 2861  2863     1 
 2861  2864     1 
 2861  2865     1 
 2862  2869     1 
 2862  2870     1 
 2862  2871     1 
 2863  2866     1 
 2863  2867     1 
 2863  2868     1 
 2864  2866     1 
 2864  2867     1 
 2864  2868     1 
 2865  2872     1 
 2865  2873     1 
 2865  2874     1 
 2866  2869     1 
 2866  2870     1 
 2866  2871     1 
 2867  2869     1 
 2867  2870     1 
 2867  2871     1 
 2868  2875     1 
 2868  2876     1 
 2868  2877     1 
 2869  2872     1 
 2869  2873     1 
 2869  2874     1 
 2870  2872     1 
 2870  2873     1 
 2870  2874     1 
 2871  2878     1 
 2871  2879     1 
 2872  2875     1 
 2872  2876     1 
 2872  2877     1 
 2873  2875     1 
 2873  2876     1 
 2873  2877     1 
 2874  2880     1 
 2874  2881     1 
 2875  2878     1 
 2875  2879     1 
 2876  2878     1 
 2876  2879     1 
 2877  2882     1 
 2877  2883     1 
 2877  2884     1 
 2878  2880     1 
 2878  2881     1 
 2879  2885     1 
 2879  2886     1 
 2879  2887     1 
 2880  2882     1 
 2880  2883     1 
 2880  2884     1 
 2881  2888     1 
 2881  2889     1 
 2881  2890     1 
 2882  2885     1 
 2882  2886     1 
 2882  2887     1 
 2883  2885     1 
 2883  2886     1 
 2883  2887     1 
 2884  2891     1 
 2884  2892     1 
 2884  2893     1 
 2885  2888     1 
 2885  2889     1 
 2885  2890     1 
 2886  2888     1 
 2886  2889     1 
 2886  2890     1 
 2887  2894     1 
 2887  2895     1 
 2887  2896     1 
 2888  2891     1 
 2888  2892     1 
 2888  2893     1 
 2889  2891     1 
 2889  2892     1 
 2889  2893     1 
 2890  2897     1 
 2890  2898     1 
 2890  2899     1 
 2891  2894     1 
 2891  2895     1 
 2891  2896     1 
 2892  2894     1 
 2892  2895     1 
 2892  2896     1 
 2893  2900     1 
 2893  2901     1 
 2893  2902     1 
 2894  2897     1 
 2894  2898     1 
 2894  2899     1 
 2895  2897     1 
 2895  2898     1 
 2895  2899     1 
 2896  2903     1 
 2896  2904     1 
 2896  2905     1 
 2897  2900     1 
 2897  2901     1 
 2897  2902     1 
 2898  2900     1 
 2898  2901     1 
 2898  2902     1 
 2900  2903     1 
 2900  2904     1 
 2900  2905     1 
 2901  2903     1 
 2901  2904     1 
 2901  2905     1 
 2906  2913     1 
 2906  2914     1 
 2906  2915     1 
 2907  2910     1 
 2907  2911     1 
 2907  2912     1 
 2908  2910     1 
 2908  2911     1 
 2908  2912     1 
 2909  2916     1 
 2909  2917     1 
 2909  2918     1 
 2910  2913     1 
 2910  2914     1 
 2910  2915     1 
 2911  2913     1 
 2911  2914     1 
 2911  2915     1 
 2912  2919     1 
 2912  2920     1 
 2912  2921     1 
 2913  2916     1 
 2913  2917     1 
 2913  2918     1 
 2914  2916     1 
 2914  2917     1 
 2914  2918     1 
 2915  2922     1 
 2915  2923     1 
 2915  2924     1 
 2916  2919     1 
 2916  2920     1 
 2916  2921     1 
 2917  2919     1 
 2917  2920     1 
 2917  2921     1 
 2918  2925     1 
 2918  2926     1 
 2918  2927     1 
 2919  2922     1 
 2919  2923     1 
 2919  2924     1 
 2920  2922     1 
 2920  2923     1 
 2920  2924     1 
 2921  2928     1 
 2921  2929     1 
 2921  2930     1 
 2922  2925     1 
 2922  2926     1 
 2922  2927     1 
 2923  2925     1 
 2923  2926     1 
 2923  2927     1 
 2924  2931     1 
 2924  2932     1 
 2924  2933     1 
 2925  2928     1 
 2925  2929     1 
 2925  2930     1 
 2926  2928     1 
 2926  2929     1 
 2926  2930     1 
 2927  2934     1 
 2927  2935     1 
 2927  2936     1 
 2928  2931     1 
 2928  2932     1 
 2928  2933     1 
 2929  2931     1 
 2929  2932     1 
 2929  2933     1 
 2930  2937     1 
 2930  2938     1 
 2930  2939     1 
 2931  2934     1 
 2931  2935     1 
 2931  2936     1 
 2932  2934     1 
 2932  2935     1 
 2932  2936     1 
 2933  2940     1 
 2933  2941     1 
 2933  2942     1 
 2934  2937     1 
 2934  2938     1 
 2934  2939     1 
 2935  2937     1 
 2935  2938     1 
 2935  2939     1 
 2936  2943     1 
 2936  2944     1 
 2936  2945     1 
 2937  2940     1 
 2937  2941     1 
 2937  2942     1 
 2938  2940     1 
 2938  2941     1 
 2938  2942     1 
 2939  2946     1 
 2939  2947     1 
 2939  2948     1 
 2940  2943     1 
 2940  2944     1 
 2940  2945     1 
 2941  2943     1 
 2941  2944     1 
 2941  2945     1 
 2943  2946     1 
 2943  2947     1 
 2943  2948     1 
 2944  2946     1 
 2944  2947     1 
 2944  2948     1 
 2949  2966     1 
 2949  2967     1 
 2949  2971     1 
 2950  2954     1 
 2950  2955     1 
 2950  2956     1 
 2950  2958     1 
 2950  2959     1 
 2950  2960     1 
 2950  2962     1 
 2950  2963     1 
 2950  2964     1 
 2950  2968     1 
 2951  2953     1 
 2951  2957     1 
 2951  2961     1 
 2951  2966     1 
 2951  2967     1 
 2951  2971     1 
 2952  2953     1 
 2952  2957     1 
 2952  2961     1 
 2952  2966     1 
 2952  2967     1 
 2952  2971     1 
 2953  2958     1 
 2953  2959     1 
 2953  2960     1 
 2953  2962     1 
 2953  2963     1 
 2953  2964     1 
 2953  2965     1 
 2954  2957     1 
 2954  2961     1 
 2955  2957     1 
 2955  2961     1 
 2956  2957     1 
 2956  2961     1 
 2957  2962     1 
 2957  2963     1 
 2957  2964     1 
 2957  2965     1 
 2958  2961     1 
 2959  2961     1 
 2960  2961     1 
 2961  2965     1 
 2965  2969     1 
 2965  2970     1 
 2965  2972     1 
 2966  2968     1 
 2967  2968     1 
 2968  2974     1 
 2968  2975     1 
 2968  2976     1 
 2969  2973     1 
 2970  2973     1 
 2971  2973     1 
 2972  2977     1 
 2972  2978     1 
 2972  2984     1 
 2973  2979     1 
 2973  2985     1 
 2973  2986     1 
 2973  2987     1 
 2974  2977     1 
 2974  2978     1 
 2974  2984     1 
 2975  2977     1 
 2975  2978     1 
 2975  2984     1 
 2976  2980     1 
 2976  2981     1 
 2976  2988     1 
 2977  2979     1 
 2977  2985     1 
 2977  2986     1 
 2977  2987     1 
 2978  2982     1 
 2978  2983     1 
 2978  2985     1 
 2978  2986     1 
 2978  2987     1 
 2978  2993     1 
 2979  2984     1 
 2979  2994     1 
 2979  2995     1 
 2979  2996     1 
 2980  2982     1 
 2980  2983     1 
 2980  2993     1 
 2981  2997     1 
 2981  2998     1 
 2981  2999     1 
 2982  2994     1 
 2982  2995     1 
 2982  2996     1 
 2983  2994     1 
 2983  2995     1 
 2983  2996     1 
 2984  2989     1 
 2984  2990     1 
 2985  2988     1 
 2986  2988     1 
 2987  2991     1 
 2987  2992     1 
 2987  3040     1 
 2988  3041     1 
 2988  3042     1 
 2988  3043     1 
 2989  2991     1 
 2989  2992     1 
 2989  3040     1 
 2990  3044     1 
 2990  3045     1 
 2990  3046     1 
 2991  3041     1 
 2991  3042     1 
 2991  3043     1 
 2992  3041     1 
 2992  3042     1 
 2992  3043     1 
 2993  3000     1 
 2993  3001     1 
 2993  3002     1 
 2994  2997     1 
 2994  2998     1 
 2994  2999     1 
 2995  2997     1 
 2995  2998     1 
 2995  2999     1 
 2996  3003     1 
 2996  3004     1 
 2996  3005     1 
 2997  3000     1 
 2997  3001     1 
 2997  3002     1 
 2998  3000     1 
 2998  3001     1 
 2998  3002     1 
 2999  3006     1 
 2999  3007     1 
 2999  3008     1 
 3000  3003     1 
 3000  3004     1 
 3000  3005     1 
 3001  3003     1 
 3001  3004     1 
 3001  3005     1 
 3002  3009     1 
 3002  3010     1 
 3002  3011     1 
 3003  3006     1 
 3003  3007     1 
 3003  3008     1 
 3004  3006     1 
 3004  3007     1 
 3004  3008     1 
 3005  3012     1 
 3005  3013     1 
 3006  3009     1 
 3006  3010     1 
 3006  3011     1 
 3007  3009     1 
 3007  3010     1 
 3007  3011     1 
 3008  3014     1 
 3008  3015     1 
 3009  3012     1 
 3009  3013     1 
 3010  3012     1 
 3010  3013     1 
 3011  3016     1 
 3011  3017     1 
 3011  3018     1 
 3012  3014     1 
 3012  3015     1 
 3013  3019     1 
 3013  3020     1 
 3013  3021     1 
 3014  3016     1 
 3014  3017     1 
 3014  3018     1 
 3015  3022     1 
 3015  3023     1 
 3015  3024     1 
 3016  3019     1 
 3016  3020     1 
 3016  3021     1 
 3017  3019     1 
 3017  3020     1 
 3017  3021     1 
 3018  3025     1 
 3018  3026     1 
 3018  3027     1 
 3019  3022     1 
 3019  3023     1 
 3019  3024     1 
 3020  3022     1 
 3020  3023     1 
 3020  3024     1 
 3021  3028     1 
 3021  3029     1 
 3021  3030     1 
 3022  3025     1 
 3022  3026     1 
 3022  3027     1 
 3023  3025     1 
 3023  3026     1 
 3023  3027     1 
 3024  3031     1 
 3024  3032     1 
 3024  3033     1 
 3025  3028     1 
 3025  3029     1 
 3025  3030     1 
 3026  3028     1 
 3026  3029     1 
 3026  3030     1 
 3027  3034     1 
 3027  3035     1 
 3027  3036     1 
 3028  3031     1 
 3028  3032     1 
 3028  3033     1 
 3029  3031     1 
 3029  3032     1 
 3029  3033     1 
 3030  3037     1 
 3030  3038     1 
 3030  3039     1 
 3031  3034     1 
 3031  3035     1 
 3031  3036     1 
 3032  3034     1 
 3032  3035     1 
 3032  3036     1 
 3034  3037     1 
 3034  3038     1 
 3034  3039     1 
 3035  3037     1 
 3035  3038     1 
 3035  3039     1 
 3040  3047     1 
 3040  3048     1 
 3040  3049     1 
 3041  3044     1 
 3041  3045     1 
 3041  3046     1 
 3042  3044     1 
 3042  3045     1 
 3042  3046     1 
 3043  3050     1 
 3043  3051     1 
 3043  3052     1 
 3044  3047     1 
 3044  3048     1 
 3044  3049     1 
 3045  3047     1 
 3045  3048     1 
 3045  3049     1 
 3046  3053     1 
 3046  3054     1 
 3046  3055     1 
 3047  3050     1 
 3047  3051     1 
 3047  3052     1 
 3048  3050     1 
 3048  3051     1 
 3048  3052     1 
 3049  3056     1 
 3049  3057     1 
 3049  3058     1 
 3050  3053     1 
 3050  3054     1 
 3050  3055     1 
 3051  3053     1 
 3051  3054     1 
 3051  3055     1 
 3052  3059     1 
 3052  3060     1 
 3052  3061     1 
 3053  3056     1 
 3053  3057     1 
 3053  3058     1 
 3054  3056     1 
 3054  3057     1 
 3054  3058     1 
 3055  3062     1 
 3055  3063     1 
 3055  3064     1 
 3056  3059     1 
 3056  3060     1 
 3056  3061     1 
 3057  3059     1 
 3057  3060     1 
 3057  3061     1 
 3058  3065     1 
 3058  3066     1 
 3058  3067     1 
 3059  3062     1 
 3059  3063     1 
 3059  3064     1 
 3060  3062     1 
 3060  3063     1 
 3060  3064     1 
 3061  3068     1 
 3061  3069     1 
 3061  3070     1 
 3062  3065     1 
 3062  3066     1 
 3062  3067     1 
 3063  3065     1 
 3063  3066     1 
 3063  3067     1 
 3064  3071     1 
 3064  3072     1 
 3064  3073     1 
 3065  3068     1 
 3065  3069     1 
 3065  3070     1 
 3066  3068     1 
 3066  3069     1 
 3066  3070     1 
 3067  3074     1 
 3067  3075     1 
 3067  3076     1 
 3068  3071     1 
 3068  3072     1 
 3068  3073     1 
 3069  3071     1 
 3069  3072     1 
 3069  3073     1 
 3070  3077     1 
 3070  3078     1 
 3070  3079     1 
 3071  3074     1 
 3071  3075     1 
 3071  3076     1 
 3072  3074     1 
 3072  3075     1 
 3072  3076     1 
 3073  3080     1 
 3073  3081     1 
 3073  3082     1 
 3074  3077     1 
 3074  3078     1 
 3074  3079     1 
 3075  3077     1 
 3075  3078     1 
 3075  3079     1 
 3077  3080     1 
 3077  3081     1 
 3077  3082     1 
 3078  3080     1 
 3078  3081     1 
 3078  3082     1 
 3083  3100     1 
 3083  3101     1 
 3083  3105     1 
 3084  3088     1 
 3084  3089     1 
 3084  3090     1 
 3084  3092     1 
 3084  3093     1 
 3084  3094     1 
 3084  3096     1 
 3084  3097     1 
 3084  3098     1 
 3084  3102     1 
 3085  3087     1 
 3085  3091     1 
 3085  3095     1 
 3085  3100     1 
 3085  3101     1 
 3085  3105     1 
 3086  3087     1 
 3086  3091     1 
 3086  3095     1 
 3086  3100     1 
 3086  3101     1 
 3086  3105     1 
 3087  3092     1 
 3087  3093     1 
 3087  3094     1 
 3087  3096     1 
 3087  3097     1 
 3087  3098     1 
 3087  3099     1 
 3088  3091     1 
 3088  3095     1 
 3089  3091     1 
 3089  3095     1 
 3090  3091     1 
 3090  3095     1 
 3091  3096     1 
 3091  3097     1 
 3091  3098     1 
 3091  3099     1 
 3092  3095     1 
 3093  3095     1 
 3094  3095     1 
 3095  3099     1 
 3099  3103     1 
 3099  3104     1 
 3099  3106     1 
 3100  3102     1 
 3101  3102     1 
 3102  3108     1 
 3102  3109     1 
 3102  3110     1 
 3103  3107     1 
 3104  3107     1 
 3105  3107     1 
 3106  3111     1 
 3106  3112     1 
 3106  3118     1 
 3107  3113     1 
 3107  3119     1 
 3107  3120     1 
 3107  3121     1 
 3108  3111     1 
 3108  3112     1 
 3108  3118     1 
 3109  3111     1 
 3109  3112     1 
 3109  3118     1 
 3110  3114     1 
 3110  3115     1 
 3110  3122     1 
 3111  3113     1 
 3111  3119     1 
 3111  3120     1 
 3111  3121     1 
 3112  3116     1 
 3112  3117     1 
 3112  3119     1 
 3112  3120     1 
 3112  3121     1 
 3112  3127     1 
 3113  3118     1 
 3113  3128     1 
 3113  3129     1 
 3113  3130     1 
 3114  3116     1 
 3114  3117     1 
 3114  3127     1 
 3115  3131     1 
 3115  3132     1 
 3115  3133     1 
 3116  3128     1 
 3116  3129     1 
 3116  3130     1 
 3117  3128     1 
 3117  3129     1 
 3117  3130     1 
 3118  3123     1 
 3118  3124     1 
 3119  3122     1 
 3120  3122     1 
 3121  3125     1 
 3121  3126     1 
 3121  3174     1 
 3122  3175     1 
 3122  3176     1 
 3122  3177     1 
 3123  3125     1 
 3123  3126     1 
 3123  3174     1 
 3124  3178     1 
 3124  3179     1 
 3124  3180     1 
 3125  3175     1 
 3125  3176     1 
 3125  3177     1 
 3126  3175     1 
 3126  3176     1 
 3126  3177     1 
 3127  3134     1 
 3127  3135     1 
 3127  3136     1 
 3128  3131     1 
 3128  3132     1 
 3128  3133     1 
 3129  3131     1 
 3129  3132     1 
 3129  3133     1 
 3130  3137     1 
 3130  3138     1 
 3130  3139     1 
 3131  3134     1 
 3131  3135     1 
 3131  3136     1 
 3132  3134     1 
 3132  3135     1 
 3132  3136     1 
 3133  3140     1 
 3133  3141     1 
 3133  3142     1 
 3134  3137     1 
 3134  3138     1 
 3134  3139     1 
 3135  3137     1 
 3135  3138     1 
 3135  3139     1 
 3136  3143     1 
 3136  3144     1 
 3136  3145     1 
 3137  3140     1 
 3137  3141     1 
 3137  3142     1 
 3138  3140     1 
 3138  3141     1 
 3138  3142     1 
 3139  3146     1 
 3139  3147     1 
 3140  3143     1 
 3140  3144     1 
 3140  3145     1 
 3141  3143     1 
 3141  3144     1 
 3141  3145     1 
 3142  3148     1 
 3142  3149     1 
 3143  3146     1 
 3143  3147     1 
 3144  3146     1 
 3144  3147     1 
 3145  3150     1 
 3145  3151     1 
 3145  3152     1 
 3146  3148     1 
 3146  3149     1 
 3147  3153     1 
 3147  3154     1 
 3147  3155     1 
 3148  3150     1 
 3148  3151     1 
 3148  3152     1 
 3149  3156     1 
 3149  3157     1 
 3149  3158     1 
 3150  3153     1 
 3150  3154     1 
 3150  3155     1 
 3151  3153     1 
 3151  3154     1 
 3151  3155     1 
 3152  3159     1 
 3152  3160     1 
 3152  3161     1 
 3153  3156     1 
 3153  3157     1 
 3153  3158     1 
 3154  3156     1 
 3154  3157     1 
 3154  3158     1 
 3155  3162     1 
 3155  3163     1 
 3155  3164     1 
 3156  3159     1 
 3156  3160     1 
 3156  3161     1 
 3157  3159     1 
 3157  3160     1 
 3157  3161     1 
 3158  3165     1 
 3158  3166     1 
 3158  3167     1 
 3159  3162     1 
 3159  3163     1 
 3159  3164     1 
 3160  3162     1 
 3160  3163     1 
 3160  3164     1 
 3161  3168     1 
 3161  3169     1 
 3161  3170     1 
 3162  3165     1 
 3162  3166     1 
 3162  3167     1 
 3163  3165     1 
 3163  3166     1 
 3163  3167     1 
 3164  3171     1 
 3164  3172     1 
 3164  3173     1 
 3165  3168     1 
 3165  3169     1 
 3165  3170     1 
 3166  3168     1 
 3166  3169     1 
 3166  3170     1 
 3168  3171     1 
 3168  3172     1 
 3168  3173     1 
 3169  3171     1 
 3169  3172     1 
 3169  3173     1 
 3174  3181     1 
 3174  3182     1 
 3174  3183     1 
 3175  3178     1 
 3175  3179     1 
 3175  3180     1 
 3176  3178     1 
 3176  3179     1 
 3176  3180     1 
 3177  3184     1 
 3177  3185     1 
 3177  3186     1 
 3178  3181     1 
 3178  3182     1 
 3178  3183     1 
 3179  3181     1 
 3179  3182     1 
 3179  3183     1 
 3180  3187     1 
 3180  3188     1 
 3180  3189     1 
 3181  3184     1 
 3181  3185     1 
 3181  3186     1 
 3182  3184     1 
 3182  3185     1 
 3182  3186     1 
 3183  3190     1 
 3183  3191     1 
 3183  3192     1 
 3184  3187     1 
 3184  3188     1 
 3184  3189     1 
 3185  3187     1 
 3185  3188     1 
 3185  3189     1 
 3186  3193     1 
 3186  3194     1 
 3186  3195     1 
 3187  3190     1 
 3187  3191     1 
 3187  3192     1 
 3188  3190     1 
 3188  3191     1 
 3188  3192     1 
 3189  3196     1 
 3189  3197     1 
 3189  3198     1 
 3190  3193     1 
 3190  3194     1 
 3190  3195     1 
 3191  3193     1 
 3191  3194     1 
 3191  3195     1 
 3192  3199     1 
 3192  3200     1 
 3192  3201     1 
 3193  3196     1 
 3193  3197     1 
 3193  3198     1 
 3194  3196     1 
 3194  3197     1 
 3194  3198     1 
 3195  3202     1 
 3195  3203     1 
 3195  3204     1 
 3196  3199     1 
 3196  3200     1 
 3196  3201     1 
 3197  3199     1 
 3197  3200     1 
 3197  3201     1 
 3198  3205     1 
 3198  3206     1 
 3198  3207     1 
 3199  3202     1 
 3199  3203     1 
 3199  3204     1 
 3200  3202     1 
 3200  3203     1 
 3200  3204     1 
 3201  3208     1 
 3201  3209     1 
 3201  3210     1 
 3202  3205     1 
 3202  3206     1 
 3202  3207     1 
 3203  3205     1 
 3203  3206     1 
 3203  3207     1 
 3204  3211     1 
 3204  3212     1 
 3204  3213     1 
 3205  3208     1 
 3205  3209     1 
 3205  3210     1 
 3206  3208     1 
 3206  3209     1 
 3206  3210     1 
 3207  3214     1 
 3207  3215     1 
 3207  3216     1 
 3208  3211     1 
 3208  3212     1 
 3208  3213     1 
 3209  3211     1 
 3209  3212     1 
 3209  3213     1 
 3211  3214     1 
 3211  3215     1 
 3211  3216     1 
 3212  3214     1 
 3212  3215     1 
 3212  3216     1 
 3217  3234     1 
 3217  3235     1 
 3217  3239     1 
 3218  3222     1 
 3218  3223     1 
 3218  3224     1 
 3218  3226     1 
 3218  3227     1 
 3218  3228     1 
 3218  3230     1 
 3218  3231     1 
 3218  3232     1 
 3218  3236     1 
 3219  3221     1 
 3219  3225     1 
 3219  3229     1 
 3219  3234     1 
 3219  3235     1 
 3219  3239     1 
 3220  3221     1 
 3220  3225     1 
 3220  3229     1 
 3220  3234     1 
 3220  3235     1 
 3220  3239     1 
 3221  3226     1 
 3221  3227     1 
 3221  3228     1 
 3221  3230     1 
 3221  3231     1 
 3221  3232     1 
 3221  3233     1 
 3222  3225     1 
 3222  3229     1 
 3223  3225     1 
 3223  3229     1 
 3224  3225     1 
 3224  3229     1 
 3225  3230     1 
 3225  3231     1 
 3225  3232     1 
 3225  3233     1 
 3226  3229     1 
 3227  3229     1 
 3228  3229     1 
 3229  3233     1 
 3233  3237     1 
 3233  3238     1 
 3233  3240     1 
 3234  3236     1 
 3235  3236     1 
 3236  3242     1 
 3236  3243     1 
 3236  3244     1 
 3237  3241     1 
 3238  3241     1 
 3239  3241     1 
 3240  3245     1 
 3240  3246     1 
 3240  3252     1 
 3241  3247     1 
 3241  3253     1 
 3241  3254     1 
 3241  3255     1 
 3242  3245     1 
 3242  3246     1 
 3242  3252     1 
 3243  3245     1 
 3243  3246     1 
 3243  3252     1 
 3244  3248     1 
 3244  3249     1 
 3244  3256     1 
 3245  3247     1 
 3245  3253     1 
 3245  3254     1 
 3245  3255     1 
 3246  3250     1 
 3246  3251     1 
 3246  3253     1 
 3246  3254     1 
 3246  3255     1 
 3246  3261     1 
 3247  3252     1 
 3247  3262     1 
 3247  3263     1 
 3247  3264     1 
 3248  3250     1 
 3248  3251     1 
 3248  3261     1 
 3249  3265     1 
 3249  3266     1 
 3249  3267     1 
 3250  3262     1 
 3250  3263     1 
 3250  3264     1 
 3251  3262     1 
 3251  3263     1 
 3251  3264     1 
 3252  3257     1 
 3252  3258     1 
 3253  3256     1 
 3254  3256     1 
 3255  3259     1 
 3255  3260     1 
 3255  3308     1 
 3256  3309     1 
 3256  3310     1 
 3256  3311     1 
 3257  3259     1 
 3257  3260     1 
 3257  3308     1 
 3258  3312     1 
 3258  3313     1 
 3258  3314     1 
 3259  3309     1 
 3259  3310     1 
 3259  3311     1 
 3260  3309     1 
 3260  3310     1 
 3260  3311     1 
 3261  3268     1 
 3261  3269     1 
 3261  3270     1 
 3262  3265     1 
 3262  3266     1 
 3262  3267     1 
 3263  3265     1 
 3263  3266     1 
 3263  3267     1 
 3264  3271     1 
 3264  3272     1 
 3264  3273     1 
 3265  3268     1 
 3265  3269     1 
 3265  3270     1 
 3266  3268     1 
 3266  3269     1 
 3266  3270     1 
 3267  3274     1 
 3267  3275     1 
 3267  3276     1 
 3268  3271     1 
 3268  3272     1 
 3268  3273     1 
 3269  3271     1 
 3269  3272     1 
 3269  3273     1 
 3270  3277     1 
 3270  3278     1 
 3270  3279     1 
 3271  3274     1 
 3271  3275     1 
 3271  3276     1 
 3272  3274     1 
 3272  3275     1 
 3272  3276     1 
 3273  3280     1 
 3273  3281     1 
 3274  3277     1 
 3274  3278     1 
 3274  3279     1 
 3275  3277     1 
 3275  3278     1 
 3275  3279     1 
 3276  3282     1 
 3276  3283     1 
 3277  3280     1 
 3277  3281     1 
 3278  3280     1 
 3278  3281     1 
 3279  3284     1 
 3279  3285     1 
 3279  3286     1 
 3280  3282     1 
 3280  3283     1 
 3281  3287     1 
 3281  3288     1 
 3281  3289     1 
 3282  3284     1 
 3282  3285     1 
 3282  3286     1 
 3283  3290     1 
 3283  3291     1 
 3283  3292     1 
 3284  3287     1 
 3284  3288     1 
 3284  3289     1 
 3285  3287     1 
 3285  3288     1 
 3285  3289     1 
 3286  3293     1 
 3286  3294     1 
 3286  3295     1 
 3287  3290     1 
 3287  3291     1 
 3287  3292     1 
 3288  3290     1 
 3288  3291     1 
 3288  3292     1 
 3289  3296     1 
 3289  3297     1 
 3289  3298     1 
 3290  3293     1 
 3290  3294     1 
 3290  3295     1 
 3291  3293     1 
 3291  3294     1 
 3291  3295     1 
 3292  3299     1 
 3292  3300     1 
 3292  3301     1 
 3293  3296     1 
 3293  3297     1 
 3293  3298     1 
 3294  3296     1 
 3294  3297     1 
 3294  3298     1 
 3295  3302     1 
 3295  3303     1 
 3295  3304     1 
 3296  3299     1 
 3296  3300     1 
 3296  3301     1 
 3297  3299     1 
 3297  3300     1 
 3297  3301     1 
 3298  3305     1 
 3298  3306     1 
 3298  3307     1 
 3299  3302     1 
 3299  3303     1 
 3299  3304     1 
 3300  3302     1 
 3300  3303     1 
 3300  3304     1 
 3302  3305     1 
 3302  3306     1 
 3302  3307     1 
 3303  3305     1 
 3303  3306     1 
 3303  3307     1 
 3308  3315     1 
 3308  3316     1 
 3308  3317     1 
 3309  3312     1 
 3309  3313     1 
 3309  3314     1 
 3310  3312     1 
 3310  3313     1 
 3310  3314     1 
 3311  3318     1 
 3311  3319     1 
 3311  3320     1 
 3312  3315     1 
 3312  3316     1 
 3312  3317     1 
 3313  3315     1 
 3313  3316     1 
 3313  3317     1 
 3314  3321     1 
 3314  3322     1 
 3314  3323     1 
 3315  3318     1 
 3315  3319     1 
 3315  3320     1 
 3316  3318     1 
 3316  3319     1 
 3316  3320     1 
 3317  3324     1 
 3317  3325     1 
 3317  3326     1 
 3318  3321     1 
 3318  3322     1 
 3318  3323     1 
 3319  3321     1 
 3319  3322     1 
 3319  3323     1 
 3320  3327     1 
 3320  3328     1 
 3320  3329     1 
 3321  3324     1 
 3321  3325     1 
 3321  3326     1 
 3322  3324     1 
 3322  3325     1 
 3322  3326     1 
 3323  3330     1 
 3323  3331     1 
 3323  3332     1 
 3324  3327     1 
 3324  3328     1 
 3324  3329     1 
 3325  3327     1 
 3325  3328     1 
 3325  3329     1 
 3326  3333     1 
 3326  3334     1 
 3326  3335     1 
 3327  3330     1 
 3327  3331     1 
 3327  3332     1 
 3328  3330     1 
 3328  3331     1 
 3328  3332     1 
 3329  3336     1 
 3329  3337     1 
 3329  3338     1 
 3330  3333     1 
 3330  3334     1 
 3330  3335     1 
 3331  3333     1 
 3331  3334     1 
 3331  3335     1 
 3332  3339     1 
 3332  3340     1 
 3332  3341     1 
 3333  3336     1 
 3333  3337     1 
 3333  3338     1 
 3334  3336     1 
 3334  3337     1 
 3334  3338     1 
 3335  3342     1 
 3335  3343     1 
 3335  3344     1 
 3336  3339     1 
 3336  3340     1 
 3336  3341     1 
 3337  3339     1 
 3337  3340     1 
 3337  3341     1 
 3338  3345     1 
 3338  3346     1 
 3338  3347     1 
 3339  3342     1 
 3339  3343     1 
 3339  3344     1 
 3340  3342     1 
 3340  3343     1 
 3340  3344     1 
 3341  3348     1 
 3341  3349     1 
 3341  3350     1 
 3342  3345     1 
 3342  3346     1 
 3342  3347     1 
 3343  3345     1 
 3343  3346     1 
 3343  3347     1 
 3345  3348     1 
 3345  3349     1 
 3345  3350     1 
 3346  3348     1 
 3346  3349     1 
 3346  3350     1 
 3351  3368     1 
 3351  3369     1 
 3351  3373     1 
 3352  3356     1 
 3352  3357     1 
 3352  3358     1 
 3352  3360     1 
 3352  3361     1 
 3352  3362     1 
 3352  3364     1 
 3352  3365     1 
 3352  3366     1 
 3352  3370     1 
 3353  3355     1 
 3353  3359     1 
 3353  3363     1 
 3353  3368     1 
 3353  3369     1 
 3353  3373     1 
 3354  3355     1 
 3354  3359     1 
 3354  3363     1 
 3354  3368     1 
 3354  3369     1 
 3354  3373     1 
 3355  3360     1 
 3355  3361     1 
 3355  3362     1 
 3355  3364     1 
 3355  3365     1 
 3355  3366     1 
 3355  3367     1 
 3356  3359     1 
 3356  3363     1 
 3357  3359     1 
 3357  3363     1 
 3358  3359     1 
 3358  3363     1 
 3359  3364     1 
 3359  3365     1 
 3359  3366     1 
 3359  3367     1 
 3360  3363     1 
 3361  3363     1 
 3362  3363     1 
 3363  3367     1 
 3367  3371     1 
 3367  3372     1 
 3367  3374     1 
 3368  3370     1 
 3369  3370     1 
 3370  3376     1 
 3370  3377     1 
 3370  3378     1 
 3371  3375     1 
 3372  3375     1 
 3373  3375     1 
 3374  3379     1 
 3374  3380     1 
 3374  3386     1 
 3375  3381     1 
 3375  3387     1 
 3375  3388     1 
 3375  3389     1 
 3376  3379     1 
 3376  3380     1 
 3376  3386     1 
 3377  3379     1 
 3377  3380     1 
 3377  3386     1 
 3378  3382     1 
 3378  3383     1 
 3378  3390     1 
 3379  3381     1 
 3379  3387     1 
 3379  3388     1 
 3379  3389     1 
 3380  3384     1 
 3380  3385     1 
 3380  3387     1 
 3380  3388     1 
 3380  3389     1 
 3380  3395     1 
 3381  3386     1 
 3381  3396     1 
 3381  3397     1 
 3381  3398     1 
 3382  3384     1 
 3382  3385     1 
 3382  3395     1 
 3383  3399     1 
 3383  3400     1 
 3383  3401     1 
 3384  3396     1 
 3384  3397     1 
 3384  3398     1 
 3385  3396     1 
 3385  3397     1 
 3385  3398     1 
 3386  3391     1 
 3386  3392     1 
 3387  3390     1 
 3388  3390     1 
 3389  3393     1 
 3389  3394     1 
 3389  3442     1 
 3390  3443     1 
 3390  3444     1 
 3390  3445     1 
 3391  3393     1 
 3391  3394     1 
 3391  3442     1 
 3392  3446     1 
 3392  3447     1 
 3392  3448     1 
 3393  3443     1 
 3393  3444     1 
 3393  3445     1 
 3394  3443     1 
 3394  3444     1 
 3394  3445     1 
 3395  3402     1 
 3395  3403     1 
 3395  3404     1 
 3396  3399     1 
 3396  3400     1 
 3396  3401     1 
 3397  3399     1 
 3397  3400     1 
 3397  3401     1 
 3398  3405     1 
 3398  3406     1 
 3398  3407     1 
 3399  3402     1 
 3399  3403     1 
 3399  3404     1 
 3400  3402     1 
 3400  3403     1 
 3400  3404     1 
 3401  3408     1 
 3401  3409     1 
 3401  3410     1 
 3402  3405     1 
 3402  3406     1 
 3402  3407     1 
 3403  3405     1 
 3403  3406     1 
 3403  3407     1 
 3404  3411     1 
 3404  3412     1 
 3404  3413     1 
 3405  3408     1 
 3405  3409     1 
 3405  3410     1 
 3406  3408     1 
 3406  3409     1 
 3406  3410     1 
 3407  3414     1 
 3407  3415     1 
 3408  3411     1 
 3408  3412     1 
 3408  3413     1 
 3409  3411     1 
 3409  3412     1 
 3409  3413     1 
 3410  3416     1 
 3410  3417     1 
 3411  3414     1 
 3411  3415     1 
 3412  3414     1 
 3412  3415     1 
 3413  3418     1 
 3413  3419     1 
 3413  3420     1 
 3414  3416     1 
 3414  3417     1 
 3415  3421     1 
 3415  3422     1 
 3415  3423     1 
 3416  3418     1 
 3416  3419     1 
 3416  3420     1 
 3417  3424     1 
 3417  3425     1 
 3417  3426     1 
 3418  3421     1 
 3418  3422     1 
 3418  3423     1 
 3419  3421     1 
 3419  3422     1 
 3419  3423     1 
 3420  3427     1 
 3420  3428     1 
 3420  3429     1 
 3421  3424     1 
 3421  3425     1 
 3421  3426     1 
 3422  3424     1 
 3422  3425     1 
 3422  3426     1 
 3423  3430     1 
 3423  3431     1 
 3423  3432     1 
 3424  3427     1 
 3424  3428     1 
 3424  3429     1 
 3425  3427     1 
 3425  3428     1 
 3425  3429     1 
 3426  3433     1 
 3426  3434     1 
 3426  3435     1 
 3427  3430     1 
 3427  3431     1 
 3427  3432     1 
 3428  3430     1 
 3428  3431     1 
 3428  3432     1 
 3429  3436     1 
 3429  3437     1 
 3429  3438     1 
 3430  3433     1 
 3430  3434     1 
 3430  3435     1 
 3431  3433     1 
 3431  3434     1 
 3431  3435     1 
 3432  3439     1 
 3432  3440     1 
 3432  3441     1 
 3433  3436     1 
 3433  3437     1 
 3433  3438     1 
 3434  3436     1 
 3434  3437     1 
 3434  3438     1 
 3436  3439     1 
 3436  3440     1 
 3436  3441     1 
 3437  3439     1 
 3437  3440     1 
 3437  3441     1 
 3442  3449     1 
 3442  3450     1 
 3442  3451     1 
 3443  3446     1 
 3443  3447     1 
 3443  3448     1 
 3444  3446     1 
 3444  3447     1 
 3444  3448     1 
 3445  3452     1 
 3445  3453     1 
 3445  3454     1 
 3446  3449     1 
 3446  3450     1 
 3446  3451     1 
 3447  3449     1 
 3447  3450     1 
 3447  3451     1 
 3448  3455     1 
 3448  3456     1 
 3448  3457     1 
 3449  3452     1 
 3449  3453     1 
 3449  3454     1 
 3450  3452     1 
 3450  3453     1 
 3450  3454     1 
 3451  3458     1 
 3451  3459     1 
 3451  3460     1 
 3452  3455     1 
 3452  3456     1 
 3452  3457     1 
 3453  3455     1 
 3453  3456     1 
 3453  3457     1 
 3454  3461     1 
 3454  3462     1 
 3454  3463     1 
 3455  3458     1 
 3455  3459     1 
 3455  3460     1 
 3456  3458     1 
 3456  3459     1 
 3456  3460     1 
 3457  3464     1 
 3457  3465     1 
 3457  3466     1 
 3458  3461     1 
 3458  3462     1 
 3458  3463     1 
 3459  3461     1 
 3459  3462     1 
 3459  3463     1 
 3460  3467     1 
 3460  3468     1 
 3460  3469     1 
 3461  3464     1 
 3461  3465     1 
 3461  3466     1 
 3462  3464     1 
 3462  3465     1 
 3462  3466     1 
 3463  3470     1 
 3463  3471     1 
 3463  3472     1 
 3464  3467     1 
 3464  3468     1 
 3464  3469     1 
 3465  3467     1 
 3465  3468     1 
 3465  3469     1 
 3466  3473     1 
 3466  3474     1 
 3466  3475     1 
 3467  3470     1 
 3467  3471     1 
 3467  3472     1 
 3468  3470     1 
 3468  3471     1 
 3468  3472     1 
 3469  3476     1 
 3469  3477     1 
 3469  3478     1 
 3470  3473     1 
 3470  3474     1 
 3470  3475     1 
 3471  3473     1 
 3471  3474     1 
 3471  3475     1 
 3472  3479     1 
 3472  3480     1 
 3472  3481     1 
 3473  3476     1 
 3473  3477     1 
 3473  3478     1 
 3474  3476     1 
 3474  3477     1 
 3474  3478     1 
 3475  3482     1 
 3475  3483     1 
 3475  3484     1 
 3476  3479     1 
 3476  3480     1 
 3476  3481     1 
 3477  3479     1 
 3477  3480     1 
 3477  3481     1 
 3479  3482     1 
 3479  3483     1 
 3479  3484     1 
 3480  3482     1 
 3480  3483     1 
 3480  3484     1 
 3485  3502     1 
 3485  3503     1 
 3485  3507     1 
 3486  3490     1 
 3486  3491     1 
 3486  3492     1 
 3486  3494     1 
 3486  3495     1 
 3486  3496     1 
 3486  3498     1 
 3486  3499     1 
 3486  3500     1 
 3486  3504     1 
 3487  3489     1 
 3487  3493     1 
 3487  3497     1 
 3487  3502     1 
 3487  3503     1 
 3487  3507     1 
 3488  3489     1 
 3488  3493     1 
 3488  3497     1 
 3488  3502     1 
 3488  3503     1 
 3488  3507     1 
 3489  3494     1 
 3489  3495     1 
 3489  3496     1 
 3489  3498     1 
 3489  3499     1 
 3489  3500     1 
 3489  3501     1 
 3490  3493     1 
 3490  3497     1 
 3491  3493     1 
 3491  3497     1 
 3492  3493     1 
 3492  3497     1 
 3493  3498     1 
 3493  3499     1 
 3493  3500     1 
 3493  3501     1 
 3494  3497     1 
 3495  3497     1 
 3496  3497     1 
 3497  3501     1 
 3501  3505     1 
 3501  3506     1 
 3501  3508     1 
 3502  3504     1 
 3503  3504     1 
 3504  3510     1 
 3504  3511     1 
 3504  3512     1 
 3505  3509     1 
 3506  3509     1 
 3507  3509     1 
 3508  3513     1 
 3508  3514     1 
 3508  3520     1 
 3509  3515     1 
 3509  3521     1 
 3509  3522     1 
 3509  3523     1 
 3510  3513     1 
 3510  3514     1 
 3510  3520     1 
 3511  3513     1 
 3511  3514     1 
 3511  3520     1 
 3512  3516     1 
 3512  3517     1 
 3512  3524     1 
 3513  3515     1 
 3513  3521     1 
 3513  3522     1 
 3513  3523     1 
 3514  3518     1 
 3514  3519     1 
 3514  3521     1 
 3514  3522     1 
 3514  3523     1 
 3514  3529     1 
 3515  3520     1 
 3515  3530     1 
 3515  3531     1 
 3515  3532     1 
 3516  3518     1 
 3516  3519     1 
 3516  3529     1 
 3517  3533     1 
 3517  3534     1 
 3517  3535     1 
 3518  3530     1 
 3518  3531     1 
 3518  3532     1 
 3519  3530     1 
 3519  3531     1 
 3519  3532     1 
 3520  3525     1 
 3520  3526     1 
 3521  3524     1 
 3522  3524     1 
 3523  3527     1 
 3523  3528     1 
 3523  3576     1 
 3524  3577     1 
 3524  3578     1 
 3524  3579     1 
 3525  3527     1 
 3525  3528     1 
 3525  3576     1 
 3526  3580     1 
 3526  3581     1 
 3526  3582     1 
 3527  3577     1 
 3527  3578     1 
 3527  3579     1 
 3528  3577     1 
 3528  3578     1 
 3528  3579     1 
 3529  3536     1 
 3529  3537     1 
 3529  3538     1 
 3530  3533     1 
 3530  3534     1 
 3530  3535     1 
 3531  3533     1 
 3531  3534     1 
 3531  3535     1 
 3532  3539     1 
 3532  3540     1 
 3532  3541     1 
 3533  3536     1 
 3533  3537     1 
 3533  3538     1 
 3534  3536     1 
 3534  3537     1 
 3534  3538     1 
 3535  3542     1 
 3535  3543     1 
 3535  3544     1 
 3536  3539     1 
 3536  3540     1 
 3536  3541     1 
 3537  3539     1 
 3537  3540     1 
 3537  3541     1 
 3538  3545     1 
 3538  3546     1 
 3538  3547     1 
 3539  3542     1 
 3539  3543     1 
 3539  3544     1 
 3540  3542     1 
 3540  3543     1 
 3540  3544     1 
 3541  3548     1 
 3541  3549     1 
 3542  3545     1 
 3542  3546     1 
 3542  3547     1 
 3543  3545     1 
 3543  3546     1 
 3543  3547     1 
 3544  3550     1 
 3544  3551     1 
 3545  3548     1 
 3545  3549     1 
 3546  3548     1 
 3546  3549     1 
 3547  3552     1 
 3547  3553     1 
 3547  3554     1 
 3548  3550     1 
 3548  3551     1 
 3549  3555     1 
 3549  3556     1 
 3549  3557     1 
 3550  3552     1 
 3550  3553     1 
 3550  3554     1 
 3551  3558     1 
 3551  3559     1 
 3551  3560     1 
 3552  3555     1 
 3552  3556     1 
 3552  3557     1 
 3553  3555     1 
 3553  3556     1 
 3553  3557     1 
 3554  3561     1 
 3554  3562     1 
 3554  3563     1 
 3555  3558     1 
 3555  3559     1 
 3555  3560     1 
 3556  3558     1 
 3556  3559     1 
 3556  3560     1 
 3557  3564     1 
 3557  3565     1 
 3557  3566     1 
 3558  3561     1 
 3558  3562     1 
 3558  3563     1 
 3559  3561     1 
 3559  3562     1 
 3559  3563     1 
 3560  3567     1 
 3560  3568     1 
 3560  3569     1 
 3561  3564     1 
 3561  3565     1 
 3561  3566     1 
 3562  3564     1 
 3562  3565     1 
 3562  3566     1 
 3563  3570     1 
 3563  3571     1 
 3563  3572     1 
 3564  3567     1 
 3564  3568     1 
 3564  3569     1 
 3565  3567     1 
 3565  3568     1 
 3565  3569     1 
 3566  3573     1 
 3566  3574     1 
 3566  3575     1 
 3567  3570     1 
 3567  3571     1 
 3567  3572     1 
 3568  3570     1 
 3568  3571     1 
 3568  3572     1 
 3570  3573     1 
 3570  3574     1 
 3570  3575     1 
 3571  3573     1 
 3571  3574     1 
 3571  3575     1 
 3576  3583     1 
 3576  3584     1 
 3576  3585     1 
 3577  3580     1 
 3577  3581     1 
 3577  3582     1 
 3578  3580     1 
 3578  3581     1 
 3578  3582     1 
 3579  3586     1 
 3579  3587     1 
 3579  3588     1 
 3580  3583     1 
 3580  3584     1 
 3580  3585     1 
 3581  3583     1 
 3581  3584     1 
 3581  3585     1 
 3582  3589     1 
 3582  3590     1 
 3582  3591     1 
 3583  3586     1 
 3583  3587     1 
 3583  3588     1 
 3584  3586     1 
 3584  3587     1 
 3584  3588     1 
 3585  3592     1 
 3585  3593     1 
 3585  3594     1 
 3586  3589     1 
 3586  3590     1 
 3586  3591     1 
 3587  3589     1 
 3587  3590     1 
 3587  3591     1 
 3588  3595     1 
 3588  3596     1 
 3588  3597     1 
 3589  3592     1 
 3589  3593     1 
 3589  3594     1 
 3590  3592     1 
 3590  3593     1 
 3590  3594     1 
 3591  3598     1 
 3591  3599     1 
 3591  3600     1 
 3592  3595     1 
 3592  3596     1 
 3592  3597     1 
 3593  3595     1 
 3593  3596     1 
 3593  3597     1 
 3594  3601     1 
 3594  3602     1 
 3594  3603     1 
 3595  3598     1 
 3595  3599     1 
 3595  3600     1 
 3596  3598     1 
 3596  3599     1 
 3596  3600     1 
 3597  3604     1 
 3597  3605     1 
 3597  3606     1 
 3598  3601     1 
 3598  3602     1 
 3598  3603     1 
 3599  3601     1 
 3599  3602     1 
 3599  3603     1 
 3600  3607     1 
 3600  3608     1 
 3600  3609     1 
 3601  3604     1 
 3601  3605     1 
 3601  3606     1 
 3602  3604     1 
 3602  3605     1 
 3602  3606     1 
 3603  3610     1 
 3603  3611     1 
 3603  3612     1 
 3604  3607     1 
 3604  3608     1 
 3604  3609     1 
 3605  3607     1 
 3605  3608     1 
 3605  3609     1 
 3606  3613     1 
 3606  3614     1 
 3606  3615     1 
 3607  3610     1 
 3607  3611     1 
 3607  3612     1 
 3608  3610     1 
 3608  3611     1 
 3608  3612     1 
 3609  3616     1 
 3609  3617     1 
 3609  3618     1 
 3610  3613     1 
 3610  3614     1 
 3610  3615     1 
 3611  3613     1 
 3611  3614     1 
 3611  3615     1 
 3613  3616     1 
 3613  3617     1 
 3613  3618     1 
 3614  3616     1 
 3614  3617     1 
 3614  3618     1 
 3619  3636     1 
 3619  3637     1 
 3619  3641     1 
 3620  3624     1 
 3620  3625     1 
 3620  3626     1 
 3620  3628     1 
 3620  3629     1 
 3620  3630     1 
 3620  3632     1 
 3620  3633     1 
 3620  3634     1 
 3620  3638     1 
 3621  3623     1 
 3621  3627     1 
 3621  3631     1 
 3621  3636     1 
 3621  3637     1 
 3621  3641     1 
 3622  3623     1 
 3622  3627     1 
 3622  3631     1 
 3622  3636     1 
 3622  3637     1 
 3622  3641     1 
 3623  3628     1 
 3623  3629     1 
 3623  3630     1 
 3623  3632     1 
 3623  3633     1 
 3623  3634     1 
 3623  3635     1 
 3624  3627     1 
 3624  3631     1 
 3625  3627     1 
 3625  3631     1 
 3626  3627     1 
 3626  3631     1 
 3627  3632     1 
 3627  3633     1 
 3627  3634     1 
 3627  3635     1 
 3628  3631     1 
 3629  3631     1 
 3630  3631     1 
 3631  3635     1 
 3635  3639     1 
 3635  3640     1 
 3635  3642     1 
 3636  3638     1 
 3637  3638     1 
 3638  3644     1 
 3638  3645     1 
 3638  3646     1 
 3639  3643     1 
 3640  3643     1 
 3641  3643     1 
 3642  3647     1 
 3642  3648     1 
 3642  3654     1 
 3643  3649     1 
 3643  3655     1 
 3643  3656     1 
 3643  3657     1 
 3644  3647     1 
 3644  3648     1 
 3644  3654     1 
 3645  3647     1 
 3645  3648     1 
 3645  3654     1 
 3646  3650     1 
 3646  3651     1 
 3646  3658     1 
 3647  3649     1 
 3647  3655     1 
 3647  3656     1 
 3647  3657     1 
 3648  3652     1 
 3648  3653     1 
 3648  3655     1 
 3648  3656     1 
 3648  3657     1 
 3648  3663     1 
 3649  3654     1 
 3649  3664     1 
 3649  3665     1 
 3649  3666     1 
 3650  3652     1 
 3650  3653     1 
 3650  3663     1 
 3651  3667     1 
 3651  3668     1 
 3651  3669     1 
 3652  3664     1 
 3652  3665     1 
 3652  3666     1 
 3653  3664     1 
 3653  3665     1 
 3653  3666     1 
 3654  3659     1 
 3654  3660     1 
 3655  3658     1 
 3656  3658     1 
 3657  3661     1 
 3657  3662     1 
 3657  3710     1 
 3658  3711     1 
 3658  3712     1 
 3658  3713     1 
 3659  3661     1 
 3659  3662     1 
 3659  3710     1 
 3660  3714     1 
 3660  3715     1 
 3660  3716     1 
 3661  3711     1 
 3661  3712     1 
 3661  3713     1 
 3662  3711     1 
 3662  3712     1 
 3662  3713     1 
 3663  3670     1 
 3663  3671     1 
 3663  3672     1 
 3664  3667     1 
 3664  3668     1 
 3664  3669     1 
 3665  3667     1 
 3665  3668     1 
 3665  3669     1 
 3666  3673     1 
 3666  3674     1 
 3666  3675     1 
 3667  3670     1 
 3667  3671     1 
 3667  3672     1 
 3668  3670     1 
 3668  3671     1 
 3668  3672     1 
 3669  3676     1 
 3669  3677     1 
 3669  3678     1 
 3670  3673     1 
 3670  3674     1 
 3670  3675     1 
 3671  3673     1 
 3671  3674     1 
 3671  3675     1 
 3672  3679     1 
 3672  3680     1 
 3672  3681     1 
 3673  3676     1 
 3673  3677     1 
 3673  3678     1 
 3674  3676     1 
 3674  3677     1 
 3674  3678     1 
 3675  3682     1 
 3675  3683     1 
 3676  3679     1 
 3676  3680     1 
 3676  3681     1 
 3677  3679     1 
 3677  3680     1 
 3677  3681     1 
 3678  3684     1 
 3678  3685     1 
 3679  3682     1 
 3679  3683     1 
 3680  3682     1 
 3680  3683     1 
 3681  3686     1 
 3681  3687     1 
 3681  3688     1 
 3682  3684     1 
 3682  3685     1 
 3683  3689     1 
 3683  3690     1 
 3683  3691     1 
 3684  3686     1 
 3684  3687     1 
 3684  3688     1 
 3685  3692     1 
 3685  3693     1 
 3685  3694     1 
 3686  3689     1 
 3686  3690     1 
 3686  3691     1 
 3687  3689     1 
 3687  3690     1 
 3687  3691     1 
 3688  3695     1 
 3688  3696     1 
 3688  3697     1 
 3689  3692     1 
 3689  3693     1 
 3689  3694     1 
 3690  3692     1 
 3690  3693     1 
 3690  3694     1 
 3691  3698     1 
 3691  3699     1 
 3691  3700     1 
 3692  3695     1 
 3692  3696     1 
 3692  3697     1 
 3693  3695     1 
 3693  3696     1 
 3693  3697     1 
 3694  3701     1 
 3694  3702     1 
 3694  3703     1 
 3695  3698     1 
 3695  3699     1 
 3695  3700     1 
 3696  3698     1 
 3696  3699     1 
 3696  3700     1 
 3697  3704     1 
 3697  3705     1 
 3697  3706     1 
 3698  3701     1 
 3698  3702     1 
 3698  3703     1 
 3699  3701     1 
 3699  3702     1 
 3699  3703     1 
 3700  3707     1 
 3700  3708     1 
 3700  3709     1 
 3701  3704     1 
 3701  3705     1 
 3701  3706     1 
 3702  3704     1 
 3702  3705     1 
 3702  3706     1 
 3704  3707     1 
 3704  3708     1 
 3704  3709     1 
 3705  3707     1 
 3705  3708     1 
 3705  3709     1 
 3710  3717     1 
 3710  3718     1 
 3710  3719     1 
 3711  3714     1 
 3711  3715     1 
 3711  3716     1 
 3712  3714     1 
 3712  3715     1 
 3712  3716     1 
 3713  3720     1 
 3713  3721     1 
 3713  3722     1 
 3714  3717     1 
 3714  3718     1 
 3714  3719     1 
 3715  3717     1 
 3715  3718     1 
 3715  3719     1 
 3716  3723     1 
 3716  3724     1 
 3716  3725     1 
 3717  3720     1 
 3717  3721     1 
 3717  3722     1 
 3718  3720     1 
 3718  3721     1 
 3718  3722     1 
 3719  3726     1 
 3719  3727     1 
 3719  3728     1 
 3720  3723     1 
 3720  3724     1 
 3720  3725     1 
 3721  3723     1 
 3721  3724     1 
 3721  3725     1 
 3722  3729     1 
 3722  3730     1 
 3722  3731     1 
 3723  3726     1 
 3723  3727     1 
 3723  3728     1 
 3724  3726     1 
 3724  3727     1 
 3724  3728     1 
 3725  3732     1 
 3725  3733     1 
 3725  3734     1 
 3726  3729     1 
 3726  3730     1 
 3726  3731     1 
 3727  3729     1 
 3727  3730     1 
 3727  3731     1 
 3728  3735     1 
 3728  3736     1 
 3728  3737     1 
 3729  3732     1 
 3729  3733     1 
 3729  3734     1 
 3730  3732     1 
 3730  3733     1 
 3730  3734     1 
 3731  3738     1 
 3731  3739     1 
 3731  3740     1 
 3732  3735     1 
 3732  3736     1 
 3732  3737     1 
 3733  3735     1 
 3733  3736     1 
 3733  3737     1 
 3734  3741     1 
 3734  3742     1 
 3734  3743     1 
 3735  3738     1 
 3735  3739     1 
 3735  3740     1 
 3736  3738     1 
 3736  3739     1 
 3736  3740     1 
 3737  3744     1 
 3737  3745     1 
 3737  3746     1 
 3738  3741     1 
 3738  3742     1 
 3738  3743     1 
 3739  3741     1 
 3739  3742     1 
 3739  3743     1 
 3740  3747     1 
 3740  3748     1 
 3740  3749     1 
 3741  3744     1 
 3741  3745     1 
 3741  3746     1 
 3742  3744     1 
 3742  3745     1 
 3742  3746     1 
 3743  3750     1 
 3743  3751     1 
 3743  3752     1 
 3744  3747     1 
 3744  3748     1 
 3744  3749     1 
 3745  3747     1 
 3745  3748     1 
 3745  3749     1 
 3747  3750     1 
 3747  3751     1 
 3747  3752     1 
 3748  3750     1 
 3748  3751     1 
 3748  3752     1 
 3753  3770     1 
 3753  3771     1 
 3753  3775     1 
 3754  3758     1 
 3754  3759     1 
 3754  3760     1 
 3754  3762     1 
 3754  3763     1 
 3754  3764     1 
 3754  3766     1 
 3754  3767     1 
 3754  3768     1 
 3754  3772     1 
 3755  3757     1 
 3755  3761     1 
 3755  3765     1 
 3755  3770     1 
 3755  3771     1 
 3755  3775     1 
 3756  3757     1 
 3756  3761     1 
 3756  3765     1 
 3756  3770     1 
 3756  3771     1 
 3756  3775     1 
 3757  3762     1 
 3757  3763     1 
 3757  3764     1 
 3757  3766     1 
 3757  3767     1 
 3757  3768     1 
 3757  3769     1 
 3758  3761     1 
 3758  3765     1 
 3759  3761     1 
 3759  3765     1 
 3760  3761     1 
 3760  3765     1 
 3761  3766     1 
 3761  3767     1 
 3761  3768     1 
 3761  3769     1 
 3762  3765     1 
 3763  3765     1 
 3764  3765     1 
 3765  3769     1 
 3769  3773     1 
 3769  3774     1 
 3769  3776     1 
 3770  3772     1 
 3771  3772     1 
 3772  3778     1 
 3772  3779     1 
 3772  3780     1 
 3773  3777     1 
 3774  3777     1 
 3775  3777     1 
 3776  3781     1 
 3776  3782     1 
 3776  3788     1 
 3777  3783     1 
 3777  3789     1 
 3777  3790     1 
 3777  3791     1 
 3778  3781     1 
 3778  3782     1 
 3778  3788     1 
 3779  3781     1 
 3779  3782     1 
 3779  3788     1 
 3780  3784     1 
 3780  3785     1 
 3780  3792     1 
 3781  3783     1 
 3781  3789     1 
 3781  3790     1 
 3781  3791     1 
 3782  3786     1 
 3782  3787     1 
 3782  3789     1 
 3782  3790     1 
 3782  3791     1 
 3782  3797     1 
 3783  3788     1 
 3783  3798     1 
 3783  3799     1 
 3783  3800     1 
 3784  3786     1 
 3784  3787     1 
 3784  3797     1 
 3785  3801     1 
 3785  3802     1 
 3785  3803     1 
 3786  3798     1 
 3786  3799     1 
 3786  3800     1 
 3787  3798     1 
 3787  3799     1 
 3787  3800     1 
 3788  3793     1 
 3788  3794     1 
 3789  3792     1 
 3790  3792     1 
 3791  3795     1 
 3791  3796     1 
 3791  3844     1 
 3792  3845     1 
 3792  3846     1 
 3792  3847     1 
 3793  3795     1 
 3793  3796     1 
 3793  3844     1 
 3794  3848     1 
 3794  3849     1 
 3794  3850     1 
 3795  3845     1 
 3795  3846     1 
 3795  3847     1 
 3796  3845     1 
 3796  3846     1 
 3796  3847     1 
 3797  3804     1 
 3797  3805     1 
 3797  3806     1 
 3798  3801     1 
 3798  3802     1 
 3798  3803     1 
 3799  3801     1 
 3799  3802     1 
 3799  3803     1 
 3800  3807     1 
 3800  3808     1 
 3800  3809     1 
 3801  3804     1 
 3801  3805     1 
 3801  3806     1 
 3802  3804     1 
 3802  3805     1 
 3802  3806     1 
 3803  3810     1 
 3803  3811     1 
 3803  3812     1 
 3804  3807     1 
 3804  3808     1 
 3804  3809     1 
 3805  3807     1 
 3805  3808     1 
 3805  3809     1 
 3806  3813     1 
 3806  3814     1 
 3806  3815     1 
 3807  3810     1 
 3807  3811     1 
 3807  3812     1 
 3808  3810     1 
 3808  3811     1 
 3808  3812     1 
 3809  3816     1 
 3809  3817     1 
 3810  3813     1 
 3810  3814     1 
 3810  3815     1 
 3811  3813     1 
 3811  3814     1 
 3811  3815     1 
 3812  3818     1 
 3812  3819     1 
 3813  3816     1 
 3813  3817     1 
 3814  3816     1 
 3814  3817     1 
 3815  3820     1 
 3815  3821     1 
 3815  3822     1 
 3816  3818     1 
 3816  3819     1 
 3817  3823     1 
 3817  3824     1 
 3817  3825     1 
 3818  3820     1 
 3818  3821     1 
 3818  3822     1 
 3819  3826     1 
 3819  3827     1 
 3819  3828     1 
 3820  3823     1 
 3820  3824     1 
 3820  3825     1 
 3821  3823     1 
 3821  3824     1 
 3821  3825     1 
 3822  3829     1 
 3822  3830     1 
 3822  3831     1 
 3823  3826     1 
 3823  3827     1 
 3823  3828     1 
 3824  3826     1 
 3824  3827     1 
 3824  3828     1 
 3825  3832     1 
 3825  3833     1 
 3825  3834     1 
 3826  3829     1 
 3826  3830     1 
 3826  3831     1 
 3827  3829     1 
 3827  3830     1 
 3827  3831     1 
 3828  3835     1 
 3828  3836     1 
 3828  3837     1 
 3829  3832     1 
 3829  3833     1 
 3829  3834     1 
 3830  3832     1 
 3830  3833     1 
 3830  3834     1 
 3831  3838     1 
 3831  3839     1 
 3831  3840     1 
 3832  3835     1 
 3832  3836     1 
 3832  3837     1 
 3833  3835     1 
 3833  3836     1 
 3833  3837     1 
 3834  3841     1 
 3834  3842     1 
 3834  3843     1 
 3835  3838     1 
 3835  3839     1 
 3835  3840     1 
 3836  3838     1 
 3836  3839     1 
 3836  3840     1 
 3838  3841     1 
 3838  3842     1 
 3838  3843     1 
 3839  3841     1 
 3839  3842     1 
 3839  3843     1 
 3844  3851     1 
 3844  3852     1 
 3844  3853     1 
 3845  3848     1 
 3845  3849     1 
 3845  3850     1 
 3846  3848     1 
 3846  3849     1 
 3846  3850     1 
 3847  3854     1 
 3847  3855     1 
 3847  3856     1 
 3848  3851     1 
 3848  3852     1 
 3848  3853     1 
 3849  3851     1 
 3849  3852     1 
 3849  3853     1 
 3850  3857     1 
 3850  3858     1 
 3850  3859     1 
 3851  3854     1 
 3851  3855     1 
 3851  3856     1 
 3852  3854     1 
 3852  3855     1 
 3852  3856     1 
 3853  3860     1 
 3853  3861     1 
 3853  3862     1 
 3854  3857     1 
 3854  3858     1 
 3854  3859     1 
 3855  3857     1 
 3855  3858     1 
 3855  3859     1 
 3856  3863     1 
 3856  3864     1 
 3856  3865     1 
 3857  3860     1 
 3857  3861     1 
 3857  3862     1 
 3858  3860     1 
 3858  3861     1 
 3858  3862     1 
 3859  3866     1 
 3859  3867     1 
 3859  3868     1 
 3860  3863     1 
 3860  3864     1 
 3860  3865     1 
 3861  3863     1 
 3861  3864     1 
 3861  3865     1 
 3862  3869     1 
 3862  3870     1 
 3862  3871     1 
 3863  3866     1 
 3863  3867     1 
 3863  3868     1 
 3864  3866     1 
 3864  3867     1 
 3864  3868     1 
 3865  3872     1 
 3865  3873     1 
 3865  3874     1 
 3866  3869     1 
 3866  3870     1 
 3866  3871     1 
 3867  3869     1 
 3867  3870     1 
 3867  3871     1 
 3868  3875     1 
 3868  3876     1 
 3868  3877     1 
 3869  3872     1 
 3869  3873     1 
 3869  3874     1 
 3870  3872     1 
 3870  3873     1 
 3870  3874     1 
 3871  3878     1 
 3871  3879     1 
 3871  3880     1 
 3872  3875     1 
 3872  3876     1 
 3872  3877     1 
 3873  3875     1 
 3873  3876     1 
 3873  3877     1 
 3874  3881     1 
 3874  3882     1 
 3874  3883     1 
 3875  3878     1 
 3875  3879     1 
 3875  3880     1 
 3876  3878     1 
 3876  3879     1 
 3876  3880     1 
 3877  3884     1 
 3877  3885     1 
 3877  3886     1 
 3878  3881     1 
 3878  3882     1 
 3878  3883     1 
 3879  3881     1 
 3879  3882     1 
 3879  3883     1 
 3881  3884     1 
 3881  3885     1 
 3881  3886     1 
 3882  3884     1 
 3882  3885     1 
 3882  3886     1 
 3887  3904     1 
 3887  3905     1 
 3887  3909     1 
 3888  3892     1 
 3888  3893     1 
 3888  3894     1 
 3888  3896     1 
 3888  3897     1 
 3888  3898     1 
 3888  3900     1 
 3888  3901     1 
 3888  3902     1 
 3888  3906     1 
 3889  3891     1 
 3889  3895     1 
 3889  3899     1 
 3889  3904     1 
 3889  3905     1 
 3889  3909     1 
 3890  3891     1 
 3890  3895     1 
 3890  3899     1 
 3890  3904     1 
 3890  3905     1 
 3890  3909     1 
 3891  3896     1 
 3891  3897     1 
 3891  3898     1 
 3891  3900     1 
 3891  3901     1 
 3891  3902     1 
 3891  3903     1 
 3892  3895     1 
 3892  3899     1 
 3893  3895     1 
 3893  3899     1 
 3894  3895     1 
 3894  3899     1 
 3895  3900     1 
 3895  3901     1 
 3895  3902     1 
 3895  3903     1 
 3896  3899     1 
 3897  3899     1 
 3898  3899     1 
 3899  3903     1 
 3903  3907     1 
 3903  3908     1 
 3903  3910     1 
 3904  3906     1 
 3905  3906     1 
 3906  3912     1 
 3906  3913     1 
 3906  3914     1 
 3907  3911     1 
 3908  3911     1 
 3909  3911     1 
 3910  3915     1 
 3910  3916     1 
 3910  3922     1 
 3911  3917     1 
 3911  3923     1 
 3911  3924     1 
 3911  3925     1 
 3912  3915     1 
 3912  3916     1 
 3912  3922     1 
 3913  3915     1 
 3913  3916     1 
 3913  3922     1 
 3914  3918     1 
 3914  3919     1 
 3914  3926     1 
 3915  3917     1 
 3915  3923     1 
 3915  3924     1 
 3915  3925     1 
 3916  3920     1 
 3916  3921     1 
 3916  3923     1 
 3916  3924     1 
 3916  3925     1 
 3916  3931     1 
 3917  3922     1 
 3917  3932     1 
 3917  3933     1 
 3917  3934     1 
 3918  3920     1 
 3918  3921     1 
 3918  3931     1 
 3919  3935     1 
 3919  3936     1 
 3919  3937     1 
 3920  3932     1 
 3920  3933     1 
 3920  3934     1 
 3921  3932     1 
 3921  3933     1 
 3921  3934     1 
 3922  3927     1 
 3922  3928     1 
 3923  3926     1 
 3924  3926     1 
 3925  3929     1 
 3925  3930     1 
 3925  3978     1 
 3926  3979     1 
 3926  3980     1 
 3926  3981     1 
 3927  3929     1 
 3927  3930     1 
 3927  3978     1 
 3928  3982     1 
 3928  3983     1 
 3928  3984     1 
 3929  3979     1 
 3929  3980     1 
 3929  3981     1 
 3930  3979     1 
 3930  3980     1 
 3930  3981     1 
 3931  3938     1 
 3931  3939     1 
 3931  3940     1 
 3932  3935     1 
 3932  3936     1 
 3932  3937     1 
 3933  3935     1 
 3933  3936     1 
 3933  3937     1 
 3934  3941     1 
 3934  3942     1 
 3934  3943     1 
 3935  3938     1 
 3935  3939     1 
 3935  3940     1 
 3936  3938     1 
 3936  3939     1 
 3936  3940     1 
 3937  3944     1 
 3937  3945     1 
 3937  3946     1 
 3938  3941     1 
 3938  3942     1 
 3938  3943     1 
 3939  3941     1 
 3939  3942     1 
 3939  3943     1 
 3940  3947     1 
 3940  3948     1 
 3940  3949     1 
 3941  3944     1 
 3941  3945     1 
 3941  3946     1 
 3942  3944     1 
 3942  3945     1 
 3942  3946     1 
 3943  3950     1 
 3943  3951     1 
 3944  3947     1 
 3944  3948     1 
 3944  3949     1 
 3945  3947     1 
 3945  3948     1 
 3945  3949     1 
 3946  3952     1 
 3946  3953     1 
 3947  3950     1 
 3947  3951     1 
 3948  3950     1 
 3948  3951     1 
 3949  3954     1 
 3949  3955     1 
 3949  3956     1 
 3950  3952     1 
 3950  3953     1 
 3951  3957     1 
 3951  3958     1 
 3951  3959     1 
 3952  3954     1 
 3952  3955     1 
 3952  3956     1 
 3953  3960     1 
 3953  3961     1 
 3953  3962     1 
 3954  3957     1 
 3954  3958     1 
 3954  3959     1 
 3955  3957     1 
 3955  3958     1 
 3955  3959     1 
 3956  3963     1 
 3956  3964     1 
 3956  3965     1 
 3957  3960     1 
 3957  3961     1 
 3957  3962     1 
 3958  3960     1 
 3958  3961     1 
 3958  3962     1 
 3959  3966     1 
 3959  3967     1 
 3959  3968     1 
 3960  3963     1 
 3960  3964     1 
 3960  3965     1 
 3961  3963     1 
 3961  3964     1 
 3961  3965     1 
 3962  3969     1 
 3962  3970     1 
 3962  3971     1 
 3963  3966     1 
 3963  3967     1 
 3963  3968     1 
 3964  3966     1 
 3964  3967     1 
 3964  3968     1 
 3965  3972     1 
 3965  3973     1 
 3965  3974     1 
 3966  3969     1 
 3966  3970     1 
 3966  3971     1 
 3967  3969     1 
 3967  3970     1 
 3967  3971     1 
 3968  3975     1 
 3968  3976     1 
 3968  3977     1 
 3969  3972     1 
 3969  3973     1 
 3969  3974     1 
 3970  3972     1 
 3970  3973     1 
 3970  3974     1 
 3972  3975     1 
 3972  3976     1 
 3972  3977     1 
 3973  3975     1 
 3973  3976     1 
 3973  3977     1 
 3978  3985     1 
 3978  3986     1 
 3978  3987     1 
 3979  3982     1 
 3979  3983     1 
 3979  3984     1 
 3980  3982     1 
 3980  3983     1 
 3980  3984     1 
 3981  3988     1 
 3981  3989     1 
 3981  3990     1 
 3982  3985     1 
 3982  3986     1 
 3982  3987     1 
 3983  3985     1 
 3983  3986     1 
 3983  3987     1 
 3984  3991     1 
 3984  3992     1 
 3984  3993     1 
 3985  3988     1 
 3985  3989     1 
 3985  3990     1 
 3986  3988     1 
 3986  3989     1 
 3986  3990     1 
 3987  3994     1 
 3987  3995     1 
 3987  3996     1 
 3988  3991     1 
 3988  3992     1 
 3988  3993     1 
 3989  3991     1 
 3989  3992     1 
 3989  3993     1 
 3990  3997     1 
 3990  3998     1 
 3990  3999     1 
 3991  3994     1 
 3991  3995     1 
 3991  3996     1 
 3992  3994     1 
 3992  3995     1 
 3992  3996     1 
 3993  4000     1 
 3993  4001     1 
 3993  4002     1 
 3994  3997     1 
 3994  3998     1 
 3994  3999     1 
 3995  3997     1 
 3995  3998     1 
 3995  3999     1 
 3996  4003     1 
 3996  4004     1 
 3996  4005     1 
 3997  4000     1 
 3997  4001     1 
 3997  4002     1 
 3998  4000     1 
 3998  4001     1 
 3998  4002     1 
 3999  4006     1 
 3999  4007     1 
 3999  4008     1 
 4000  4003     1 
 4000  4004     1 
 4000  4005     1 
 4001  4003     1 
 4001  4004     1 
 4001  4005     1 
 4002  4009     1 
 4002  4010     1 
 4002  4011     1 
 4003  4006     1 
 4003  4007     1 
 4003  4008     1 
 4004  4006     1 
 4004  4007     1 
 4004  4008     1 
 4005  4012     1 
 4005  4013     1 
 4005  4014     1 
 4006  4009     1 
 4006  4010     1 
 4006  4011     1 
 4007  4009     1 
 4007  4010     1 
 4007  4011     1 
 4008  4015     1 
 4008  4016     1 
 4008  4017     1 
 4009  4012     1 
 4009  4013     1 
 4009  4014     1 
 4010  4012     1 
 4010  4013     1 
 4010  4014     1 
 4011  4018     1 
 4011  4019     1 
 4011  4020     1 
 4012  4015     1 
 4012  4016     1 
 4012  4017     1 
 4013  4015     1 
 4013  4016     1 
 4013  4017     1 
 4015  4018     1 
 4015  4019     1 
 4015  4020     1 
 4016  4018     1 
 4016  4019     1 
 4016  4020     1 
 4021  4038     1 
 4021  4039     1 
 4021  4043     1 
 4022  4026     1 
 4022  4027     1 
 4022  4028     1 
 4022  4030     1 
 4022  4031     1 
 4022  4032     1 
 4022  4034     1 
 4022  4035     1 
 4022  4036     1 
 4022  4040     1 
 4023  4025     1 
 4023  4029     1 
 4023  4033     1 
 4023  4038     1 
 4023  4039     1 
 4023  4043     1 
 4024  4025     1 
 4024  4029     1 
 4024  4033     1 
 4024  4038     1 
 4024  4039     1 
 4024  4043     1 
 4025  4030     1 
 4025  4031     1 
 4025  4032     1 
 4025  4034     1 
 4025  4035     1 
 4025  4036     1 
 4025  4037     1 
 4026  4029     1 
 4026  4033     1 
 4027  4029     1 
 4027  4033     1 
 4028  4029     1 
 4028  4033     1 
 4029  4034     1 
 4029  4035     1 
 4029  4036     1 
 4029  4037     1 
 4030  4033     1 
 4031  4033     1 
 4032  4033     1 
 4033  4037     1 
 4037  4041     1 
 4037  4042     1 
 4037  4044     1 
 4038  4040     1 
 4039  4040     1 
 4040  4046     1 
 4040  4047     1 
 4040  4048     1 
 4041  4045     1 
 4042  4045     1 
 4043  4045     1 
 4044  4049     1 
 4044  4050     1 
 4044  4056     1 
 4045  4051     1 
 4045  4057     1 
 4045  4058     1 
 4045  4059     1 
 4046  4049     1 
 4046  4050     1 
 4046  4056     1 
 4047  4049     1 
 4047  4050     1 
 4047  4056     1 
 4048  4052     1 
 4048  4053     1 
 4048  4060     1 
 4049  4051     1 
 4049  4057     1 
 4049  4058     1 
 4049  4059     1 
 4050  4054     1 
 4050  4055     1 
 4050  4057     1 
 4050  4058     1 
 4050  4059     1 
 4050  4065     1 
 4051  4056     1 
 4051  4066     1 
 4051  4067     1 
 4051  4068     1 
 4052  4054     1 
 4052  4055     1 
 4052  4065     1 
 4053  4069     1 
 4053  4070     1 
 4053  4071     1 
 4054  4066     1 
 4054  4067     1 
 4054  4068     1 
 4055  4066     1 
 4055  4067     1 
 4055  4068     1 
 4056  4061     1 
 4056  4062     1 
 4057  4060     1 
 4058  4060     1 
 4059  4063     1 
 4059  4064     1 
 4059  4112     1 
 4060  4113     1 
 4060  4114     1 
 4060  4115     1 
 4061  4063     1 
 4061  4064     1 
 4061  4112     1 
 4062  4116     1 
 4062  4117     1 
 4062  4118     1 
 4063  4113     1 
 4063  4114     1 
 4063  4115     1 
 4064  4113     1 
 4064  4114     1 
 4064  4115     1 
 4065  4072     1 
 4065  4073     1 
 4065  4074     1 
 4066  4069     1 
 4066  4070     1 
 4066  4071     1 
 4067  4069     1 
 4067  4070     1 
 4067  4071     1 
 4068  4075     1 
 4068  4076     1 
 4068  4077     1 
 4069  4072     1 
 4069  4073     1 
 4069  4074     1 
 4070  4072     1 
 4070  4073     1 
 4070  4074     1 
 4071  4078     1 
 4071  4079     1 
 4071  4080     1 
 4072  4075     1 
 4072  4076     1 
 4072  4077     1 
 4073  4075     1 
 4073  4076     1 
 4073  4077     1 
 4074  4081     1 
 4074  4082     1 
 4074  4083     1 
 4075  4078     1 
 4075  4079     1 
 4075  4080     1 
 4076  4078     1 
 4076  4079     1 
 4076  4080     1 
 4077  4084     1 
 4077  4085     1 
 4078  4081     1 
 4078  4082     1 
 4078  4083     1 
 4079  4081     1 
 4079  4082     1 
 4079  4083     1 
 4080  4086     1 
 4080  4087     1 
 4081  4084     1 
 4081  4085     1 
 4082  4084     1 
 4082  4085     1 
 4083  4088     1 
 4083  4089     1 
 4083  4090     1 
 4084  4086     1 
 4084  4087     1 
 4085  4091     1 
 4085  4092     1 
 4085  4093     1 
 4086  4088     1 
 4086  4089     1 
 4086  4090     1 
 4087  4094     1 
 4087  4095     1 
 4087  4096     1 
 4088  4091     1 
 4088  4092     1 
 4088  4093     1 
 4089  4091     1 
 4089  4092     1 
 4089  4093     1 
 4090  4097     1 
 4090  4098     1 
 4090  4099     1 
 4091  4094     1 
 4091  4095     1 
 4091  4096     1 
 4092  4094     1 
 4092  4095     1 
 4092  4096     1 
 4093  4100     1 
 4093  4101     1 
 4093  4102     1 
 4094  4097     1 
 4094  4098     1 
 4094  4099     1 
 4095  4097     1 
 4095  4098     1 
 4095  4099     1 
 4096  4103     1 
 4096  4104     1 
 4096  4105     1 
 4097  4100     1 
 4097  4101     1 
 4097  4102     1 
 4098  4100     1 
 4098  4101     1 
 4098  4102     1 
 4099  4106     1 
 4099  4107     1 
 4099  4108     1 
 4100  4103     1 
 4100  4104     1 
 4100  4105     1 
 4101  4103     1 
 4101  4104     1 
 4101  4105     1 
 4102  4109     1 
 4102  4110     1 
 4102  4111     1 
 4103  4106     1 
 4103  4107     1 
 4103  4108     1 
 4104  4106     1 
 4104  4107     1 
 4104  4108     1 
 4106  4109     1 
 4106  4110     1 
 4106  4111     1 
 4107  4109     1 
 4107  4110     1 
 4107  4111     1 
 4112  4119     1 
 4112  4120     1 
 4112  4121     1 
 4113  4116     1 
 4113  4117     1 
 4113  4118     1 
 4114  4116     1 
 4114  4117     1 
 4114  4118     1 
 4115  4122     1 
 4115  4123     1 
 4115  4124     1 
 4116  4119     1 
 4116  4120     1 
 4116  4121     1 
 4117  4119     1 
 4117  4120     1 
 4117  4121     1 
 4118  4125     1 
 4118  4126     1 
 4118  4127     1 
 4119  4122     1 
 4119  4123     1 
 4119  4124     1 
 4120  4122     1 
 4120  4123     1 
 4120  4124     1 
 4121  4128     1 
 4121  4129     1 
 4121  4130     1 
 4122  4125     1 
 4122  4126     1 
 4122  4127     1 
 4123  4125     1 
 4123  4126     1 
 4123  4127     1 
 4124  4131     1 
 4124  4132     1 
 4124  4133     1 
 4125  4128     1 
 4125  4129     1 
 4125  4130     1 
 4126  4128     1 
 4126  4129     1 
 4126  4130     1 
 4127  4134     1 
 4127  4135     1 
 4127  4136     1 
 4128  4131     1 
 4128  4132     1 
 4128  4133     1 
 4129  4131     1 
 4129  4132     1 
 4129  4133     1 
 4130  4137     1 
 4130  4138     1 
 4130  4139     1 
 4131  4134     1 
 4131  4135     1 
 4131  4136     1 
 4132  4134     1 
 4132  4135     1 
 4132  4136     1 
 4133  4140     1 
 4133  4141     1 
 4133  4142     1 
 4134  4137     1 
 4134  4138     1 
 4134  4139     1 
 4135  4137     1 
 4135  4138     1 
 4135  4139     1 
 4136  4143     1 
 4136  4144     1 
 4136  4145     1 
 4137  4140     1 
 4137  4141     1 
 4137  4142     1 
 4138  4140     1 
 4138  4141     1 
 4138  4142     1 
 4139  4146     1 
 4139  4147     1 
 4139  4148     1 
 4140  4143     1 
 4140  4144     1 
 4140  4145     1 
 4141  4143     1 
 4141  4144     1 
 4141  4145     1 
 4142  4149     1 
 4142  4150     1 
 4142  4151     1 
 4143  4146     1 
 4143  4147     1 
 4143  4148     1 
 4144  4146     1 
 4144  4147     1 
 4144  4148     1 
 4145  4152     1 
 4145  4153     1 
 4145  4154     1 
 4146  4149     1 
 4146  4150     1 
 4146  4151     1 
 4147  4149     1 
 4147  4150     1 
 4147  4151     1 
 4149  4152     1 
 4149  4153     1 
 4149  4154     1 
 4150  4152     1 
 4150  4153     1 
 4150  4154     1 
 4155  4172     1 
 4155  4173     1 
 4155  4177     1 
 4156  4160     1 
 4156  4161     1 
 4156  4162     1 
 4156  4164     1 
 4156  4165     1 
 4156  4166     1 
 4156  4168     1 
 4156  4169     1 
 4156  4170     1 
 4156  4174     1 
 4157  4159     1 
 4157  4163     1 
 4157  4167     1 
 4157  4172     1 
 4157  4173     1 
 4157  4177     1 
 4158  4159     1 
 4158  4163     1 
 4158  4167     1 
 4158  4172     1 
 4158  4173     1 
 4158  4177     1 
 4159  4164     1 
 4159  4165     1 
 4159  4166     1 
 4159  4168     1 
 4159  4169     1 
 4159  4170     1 
 4159  4171     1 
 4160  4163     1 
 4160  4167     1 
 4161  4163     1 
 4161  4167     1 
 4162  4163     1 
 4162  4167     1 
 4163  4168     1 
 4163  4169     1 
 4163  4170     1 
 4163  4171     1 
 4164  4167     1 
 4165  4167     1 
 4166  4167     1 
 4167  4171     1 
 4171  4175     1 
 4171  4176     1 
 4171  4178     1 
 4172  4174     1 
 4173  4174     1 
 4174  4180     1 
 4174  4181     1 
 4174  4182     1 
 4175  4179     1 
 4176  4179     1 
 4177  4179     1 
 4178  4183     1 
 4178  4184     1 
 4178  4190     1 
 4179  4185     1 
 4179  4191     1 
 4179  4192     1 
 4179  4193     1 
 4180  4183     1 
 4180  4184     1 
 4180  4190     1 
 4181  4183     1 
 4181  4184     1 
 4181  4190     1 
 4182  4186     1 
 4182  4187     1 
 4182  4194     1 
 4183  4185     1 
 4183  4191     1 
 4183  4192     1 
 4183  4193     1 
 4184  4188     1 
 4184  4189     1 
 4184  4191     1 
 4184  4192     1 
 4184  4193     1 
 4184  4199     1 
 4185  4190     1 
 4185  4200     1 
 4185  4201     1 
 4185  4202     1 
 4186  4188     1 
 4186  4189     1 
 4186  4199     1 
 4187  4203     1 
 4187  4204     1 
 4187  4205     1 
 4188  4200     1 
 4188  4201     1 
 4188  4202     1 
 4189  4200     1 
 4189  4201     1 
 4189  4202     1 
 4190  4195     1 
 4190  4196     1 
 4191  4194     1 
 4192  4194     1 
 4193  4197     1 
 4193  4198     1 
 4193  4246     1 
 4194  4247     1 
 4194  4248     1 
 4194  4249     1 
 4195  4197     1 
 4195  4198     1 
 4195  4246     1 
 4196  4250     1 
 4196  4251     1 
 4196  4252     1 
 4197  4247     1 
 4197  4248     1 
 4197  4249     1 
 4198  4247     1 
 4198  4248     1 
 4198  4249     1 
 4199  4206     1 
 4199  4207     1 
 4199  4208     1 
 4200  4203     1 
 4200  4204     1 
 4200  4205     1 
 4201  4203     1 
 4201  4204     1 
 4201  4205     1 
 4202  4209     1 
 4202  4210     1 
 4202  4211     1 
 4203  4206     1 
 4203  4207     1 
 4203  4208     1 
 4204  4206     1 
 4204  4207     1 
 4204  4208     1 
 4205  4212     1 
 4205  4213     1 
 4205  4214     1 
 4206  4209     1 
 4206  4210     1 
 4206  4211     1 
 4207  4209     1 
 4207  4210     1 
 4207  4211     1 
 4208  4215     1 
 4208  4216     1 
 4208  4217     1 
 4209  4212     1 
 4209  4213     1 
 4209  4214     1 
 4210  4212     1 
 4210  4213     1 
 4210  4214     1 
 4211  4218     1 
 4211  4219     1 
 4212  4215     1 
 4212  4216     1 
 4212  4217     1 
 4213  4215     1 
 4213  4216     1 
 4213  4217     1 
 4214  4220     1 
 4214  4221     1 
 4215  4218     1 
 4215  4219     1 
 4216  4218     1 
 4216  4219     1 
 4217  4222     1 
 4217  4223     1 
 4217  4224     1 
 4218  4220     1 
 4218  4221     1 
 4219  4225     1 
 4219  4226     1 
 4219  4227     1 
 4220  4222     1 
 4220  4223     1 
 4220  4224     1 
 4221  4228     1 
 4221  4229     1 
 4221  4230     1 
 4222  4225     1 
 4222  4226     1 
 4222  4227     1 
 4223  4225     1 
 4223  4226     1 
 4223  4227     1 
 4224  4231     1 
 4224  4232     1 
 4224  4233     1 
 4225  4228     1 
 4225  4229     1 
 4225  4230     1 
 4226  4228     1 
 4226  4229     1 
 4226  4230     1 
 4227  4234     1 
 4227  4235     1 
 4227  4236     1 
 4228  4231     1 
 4228  4232     1 
 4228  4233     1 
 4229  4231     1 
 4229  4232     1 
 4229  4233     1 
 4230  4237     1 
 4230  4238     1 
 4230  4239     1 
 4231  4234     1 
 4231  4235     1 
 4231  4236     1 
 4232  4234     1 
 4232  4235     1 
 4232  4236     1 
 4233  4240     1 
 4233  4241     1 
 4233  4242     1 
 4234  4237     1 
 4234  4238     1 
 4234  4239     1 
 4235  4237     1 
 4235  4238     1 
 4235  4239     1 
 4236  4243     1 
 4236  4244     1 
 4236  4245     1 
 4237  4240     1 
 4237  4241     1 
 4237  4242     1 
 4238  4240     1 
 4238  4241     1 
 4238  4242     1 
 4240  4243     1 
 4240  4244     1 
 4240  4245     1 
 4241  4243     1 
 4241  4244     1 
 4241  4245     1 
 4246  4253     1 
 4246  4254     1 
 4246  4255     1 
 4247  4250     1 
 4247  4251     1 
 4247  4252     1 
 4248  4250     1 
 4248  4251     1 
 4248  4252     1 
 4249  4256     1 
 4249  4257     1 
 4249  4258     1 
 4250  4253     1 
 4250  4254     1 
 4250  4255     1 
 4251  4253     1 
 4251  4254     1 
 4251  4255     1 
 4252  4259     1 
 4252  4260     1 
 4252  4261     1 
 4253  4256     1 
 4253  4257     1 
 4253  4258     1 
 4254  4256     1 
 4254  4257     1 
 4254  4258     1 
 4255  4262     1 
 4255  4263     1 
 4255  4264     1 
 4256  4259     1 
 4256  4260     1 
 4256  4261     1 
 4257  4259     1 
 4257  4260     1 
 4257  4261     1 
 4258  4265     1 
 4258  4266     1 
 4258  4267     1 
 4259  4262     1 
 4259  4263     1 
 4259  4264     1 
 4260  4262     1 
 4260  4263     1 
 4260  4264     1 
 4261  4268     1 
 4261  4269     1 
 4261  4270     1 
 4262  4265     1 
 4262  4266     1 
 4262  4267     1 
 4263  4265     1 
 4263  4266     1 
 4263  4267     1 
 4264  4271     1 
 4264  4272     1 
 4264  4273     1 
 4265  4268     1 
 4265  4269     1 
 4265  4270     1 
 4266  4268     1 
 4266  4269     1 
 4266  4270     1 
 4267  4274     1 
 4267  4275     1 
 4267  4276     1 
 4268  4271     1 
 4268  4272     1 
 4268  4273     1 
 4269  4271     1 
 4269  4272     1 
 4269  4273     1 
 4270  4277     1 
 4270  4278     1 
 4270  4279     1 
 4271  4274     1 
 4271  4275     1 
 4271  4276     1 
 4272  4274     1 
 4272  4275     1 
 4272  4276     1 
 4273  4280     1 
 4273  4281     1 
 4273  4282     1 
 4274  4277     1 
 4274  4278     1 
 4274  4279     1 
 4275  4277     1 
 4275  4278     1 
 4275  4279     1 
 4276  4283     1 
 4276  4284     1 
 4276  4285     1 
 4277  4280     1 
 4277  4281     1 
 4277  4282     1 
 4278  4280     1 
 4278  4281     1 
 4278  4282     1 
 4279  4286     1 
 4279  4287     1 
 4279  4288     1 
 4280  4283     1 
 4280  4284     1 
 4280  4285     1 
 4281  4283     1 
 4281  4284     1 
 4281  4285     1 
 4283  4286     1 
 4283  4287     1 
 4283  4288     1 
 4284  4286     1 
 4284  4287     1 
 4284  4288     1 
 4289  4306     1 
 4289  4307     1 
 4289  4311     1 
 4290  4294     1 
 4290  4295     1 
 4290  4296     1 
 4290  4298     1 
 4290  4299     1 
 4290  4300     1 
 4290  4302     1 
 4290  4303     1 
 4290  4304     1 
 4290  4308     1 
 4291  4293     1 
 4291  4297     1 
 4291  4301     1 
 4291  4306     1 
 4291  4307     1 
 4291  4311     1 
 4292  4293     1 
 4292  4297     1 
 4292  4301     1 
 4292  4306     1 
 4292  4307     1 
 4292  4311     1 
 4293  4298     1 
 4293  4299     1 
 4293  4300     1 
 4293  4302     1 
 4293  4303     1 
 4293  4304     1 
 4293  4305     1 
 4294  4297     1 
 4294  4301     1 
 4295  4297     1 
 4295  4301     1 
 4296  4297     1 
 4296  4301     1 
 4297  4302     1 
 4297  4303     1 
 4297  4304     1 
 4297  4305     1 
 4298  4301     1 
 4299  4301     1 
 4300  4301     1 
 4301  4305     1 
 4305  4309     1 
 4305  4310     1 
 4305  4312     1 
 4306  4308     1 
 4307  4308     1 
 4308  4314     1 
 4308  4315     1 
 4308  4316     1 
 4309  4313     1 
 4310  4313     1 
 4311  4313     1 
 4312  4317     1 
 4312  4318     1 
 4312  4324     1 
 4313  4319     1 
 4313  4325     1 
 4313  4326     1 
 4313  4327     1 
 4314  4317     1 
 4314  4318     1 
 4314  4324     1 
 4315  4317     1 
 4315  4318     1 
 4315  4324     1 
 4316  4320     1 
 4316  4321     1 
 4316  4328     1 
 4317  4319     1 
 4317  4325     1 
 4317  4326     1 
 4317  4327     1 
 4318  4322     1 
 4318  4323     1 
 4318  4325     1 
 4318  4326     1 
 4318  4327     1 
 4318  4333     1 
 4319  4324     1 
 4319  4334     1 
 4319  4335     1 
 4319  4336     1 
 4320  4322     1 
 4320  4323     1 
 4320  4333     1 
 4321  4337     1 
 4321  4338     1 
 4321  4339     1 
 4322  4334     1 
 4322  4335     1 
 4322  4336     1 
 4323  4334     1 
 4323  4335     1 
 4323  4336     1 
 4324  4329     1 
 4324  4330     1 
 4325  4328     1 
 4326  4328     1 
 4327  4331     1 
 4327  4332     1 
 4327  4380     1 
 4328  4381     1 
 4328  4382     1 
 4328  4383     1 
 4329  4331     1 
 4329  4332     1 
 4329  4380     1 
 4330  4384     1 
 4330  4385     1 
 4330  4386     1 
 4331  4381     1 
 4331  4382     1 
 4331  4383     1 
 4332  4381     1 
 4332  4382     1 
 4332  4383     1 
 4333  4340     1 
 4333  4341     1 
 4333  4342     1 
 4334  4337     1 
 4334  4338     1 
 4334  4339     1 
 4335  4337     1 
 4335  4338     1 
 4335  4339     1 
 4336  4343     1 
 4336  4344     1 
 4336  4345     1 
 4337  4340     1 
 4337  4341     1 
 4337  4342     1 
 4338  4340     1 
 4338  4341     1 
 4338  4342     1 
 4339  4346     1 
 4339  4347     1 
 4339  4348     1 
 4340  4343     1 
 4340  4344     1 
 4340  4345     1 
 4341  4343     1 
 4341  4344     1 
 4341  4345     1 
 4342  4349     1 
 4342  4350     1 
 4342  4351     1 
 4343  4346     1 
 4343  4347     1 
 4343  4348     1 
 4344  4346     1 
 4344  4347     1 
 4344  4348     1 
 4345  4352     1 
 4345  4353     1 
 4346  4349     1 
 4346  4350     1 
 4346  4351     1 
 4347  4349     1 
 4347  4350     1 
 4347  4351     1 
 4348  4354     1 
 4348  4355     1 
 4349  4352     1 
 4349  4353     1 
 4350  4352     1 
 4350  4353     1 
 4351  4356     1 
 4351  4357     1 
 4351  4358     1 
 4352  4354     1 
 4352  4355     1 
 4353  4359     1 
 4353  4360     1 
 4353  4361     1 
 4354  4356     1 
 4354  4357     1 
 4354  4358     1 
 4355  4362     1 
 4355  4363     1 
 4355  4364     1 
 4356  4359     1 
 4356  4360     1 
 4356  4361     1 
 4357  4359     1 
 4357  4360     1 
 4357  4361     1 
 4358  4365     1 
 4358  4366     1 
 4358  4367     1 
 4359  4362     1 
 4359  4363     1 
 4359  4364     1 
 4360  4362     1 
 4360  4363     1 
 4360  4364     1 
 4361  4368     1 
 4361  4369     1 
 4361  4370     1 
 4362  4365     1 
 4362  4366     1 
 4362  4367     1 
 4363  4365     1 
 4363  4366     1 
 4363  4367     1 
 4364  4371     1 
 4364  4372     1 
 4364  4373     1 
 4365  4368     1 
 4365  4369     1 
 4365  4370     1 
 4366  4368     1 
 4366  4369     1 
 4366  4370     1 
 4367  4374     1 
 4367  4375     1 
 4367  4376     1 
 4368  4371     1 
 4368  4372     1 
 4368  4373     1 
 4369  4371     1 
 4369  4372     1 
 4369  4373     1 
 4370  4377     1 
 4370  4378     1 
 4370  4379     1 
 4371  4374     1 
 4371  4375     1 
 4371  4376     1 
 4372  4374     1 
 4372  4375     1 
 4372  4376     1 
 4374  4377     1 
 4374  4378     1 
 4374  4379     1 
 4375  4377     1 
 4375  4378     1 
 4375  4379     1 
 4380  4387     1 
 4380  4388     1 
 4380  4389     1 
 4381  4384     1 
 4381  4385     1 
 4381  4386     1 
 4382  4384     1 
 4382  4385     1 
 4382  4386     1 
 4383  4390     1 
 4383  4391     1 
 4383  4392     1 
 4384  4387     1 
 4384  4388     1 
 4384  4389     1 
 4385  4387     1 
 4385  4388     1 
 4385  4389     1 
 4386  4393     1 
 4386  4394     1 
 4386  4395     1 
 4387  4390     1 
 4387  4391     1 
 4387  4392     1 
 4388  4390     1 
 4388  4391     1 
 4388  4392     1 
 4389  4396     1 
 4389  4397     1 
 4389  4398     1 
 4390  4393     1 
 4390  4394     1 
 4390  4395     1 
 4391  4393     1 
 4391  4394     1 
 4391  4395     1 
 4392  4399     1 
 4392  4400     1 
 4392  4401     1 
 4393  4396     1 
 4393  4397     1 
 4393  4398     1 
 4394  4396     1 
 4394  4397     1 
 4394  4398     1 
 4395  4402     1 
 4395  4403     1 
 4395  4404     1 
 4396  4399     1 
 4396  4400     1 
 4396  4401     1 
 4397  4399     1 
 4397  4400     1 
 4397  4401     1 
 4398  4405     1 
 4398  4406     1 
 4398  4407     1 
 4399  4402     1 
 4399  4403     1 
 4399  4404     1 
 4400  4402     1 
 4400  4403     1 
 4400  4404     1 
 4401  4408     1 
 4401  4409     1 
 4401  4410     1 
 4402  4405     1 
 4402  4406     1 
 4402  4407     1 
 4403  4405     1 
 4403  4406     1 
 4403  4407     1 
 4404  4411     1 
 4404  4412     1 
 4404  4413     1 
 4405  4408     1 
 4405  4409     1 
 4405  4410     1 
 4406  4408     1 
 4406  4409     1 
 4406  4410     1 
 4407  4414     1 
 4407  4415     1 
 4407  4416     1 
 4408  4411     1 
 4408  4412     1 
 4408  4413     1 
 4409  4411     1 
 4409  4412     1 
 4409  4413     1 
 4410  4417     1 
 4410  4418     1 
 4410  4419     1 
 4411  4414     1 
 4411  4415     1 
 4411  4416     1 
 4412  4414     1 
 4412  4415     1 
 4412  4416     1 
 4413  4420     1 
 4413  4421     1 
 4413  4422     1 
 4414  4417     1 
 4414  4418     1 
 4414  4419     1 
 4415  4417     1 
 4415  4418     1 
 4415  4419     1 
 4417  4420     1 
 4417  4421     1 
 4417  4422     1 
 4418  4420     1 
 4418  4421     1 
 4418  4422     1 
 4423  4440     1 
 4423  4441     1 
 4423  4445     1 
 4424  4428     1 
 4424  4429     1 
 4424  4430     1 
 4424  4432     1 
 4424  4433     1 
 4424  4434     1 
 4424  4436     1 
 4424  4437     1 
 4424  4438     1 
 4424  4442     1 
 4425  4427     1 
 4425  4431     1 
 4425  4435     1 
 4425  4440     1 
 4425  4441     1 
 4425  4445     1 
 4426  4427     1 
 4426  4431     1 
 4426  4435     1 
 4426  4440     1 
 4426  4441     1 
 4426  4445     1 
 4427  4432     1 
 4427  4433     1 
 4427  4434     1 
 4427  4436     1 
 4427  4437     1 
 4427  4438     1 
 4427  4439     1 
 4428  4431     1 
 4428  4435     1 
 4429  4431     1 
 4429  4435     1 
 4430  4431     1 
 4430  4435     1 
 4431  4436     1 
 4431  4437     1 
 4431  4438     1 
 4431  4439     1 
 4432  4435     1 
 4433  4435     1 
 4434  4435     1 
 4435  4439     1 
 4439  4443     1 
 4439  4444     1 
 4439  4446     1 
 4440  4442     1 
 4441  4442     1 
 4442  4448     1 
 4442  4449     1 
 4442  4450     1 
 4443  4447     1 
 4444  4447     1 
 4445  4447     1 
 4446  4451     1 
 4446  4452     1 
 4446  4458     1 
 4447  4453     1 
 4447  4459     1 
 4447  4460     1 
 4447  4461     1 
 4448  4451     1 
 4448  4452     1 
 4448  4458     1 
 4449  4451     1 
 4449  4452     1 
 4449  4458     1 
 4450  4454     1 
 4450  4455     1 
 4450  4462     1 
 4451  4453     1 
 4451  4459     1 
 4451  4460     1 
 4451  4461     1 
 4452  4456     1 
 4452  4457     1 
 4452  4459     1 
 4452  4460     1 
 4452  4461     1 
 4452  4467     1 
 4453  4458     1 
 4453  4468     1 
 4453  4469     1 
 4453  4470     1 
 4454  4456     1 
 4454  4457     1 
 4454  4467     1 
 4455  4471     1 
 4455  4472     1 
 4455  4473     1 
 4456  4468     1 
 4456  4469     1 
 4456  4470     1 
 4457  4468     1 
 4457  4469     1 
 4457  4470     1 
 4458  4463     1 
 4458  4464     1 
 4459  4462     1 
 4460  4462     1 
 4461  4465     1 
 4461  4466     1 
 4461  4514     1 
 4462  4515     1 
 4462  4516     1 
 4462  4517     1 
 4463  4465     1 
 4463  4466     1 
 4463  4514     1 
 4464  4518     1 
 4464  4519     1 
 4464  4520     1 
 4465  4515     1 
 4465  4516     1 
 4465  4517     1 
 4466  4515     1 
 4466  4516     1 
 4466  4517     1 
 4467  4474     1 
 4467  4475     1 
 4467  4476     1 
 4468  4471     1 
 4468  4472     1 
 4468  4473     1 
 4469  4471     1 
 4469  4472     1 
 4469  4473     1 
 4470  4477     1 
 4470  4478     1 
 4470  4479     1 
 4471  4474     1 
 4471  4475     1 
 4471  4476     1 
 4472  4474     1 
 4472  4475     1 
 4472  4476     1 
 4473  4480     1 
 4473  4481     1 
 4473  4482     1 
 4474  4477     1 
 4474  4478     1 
 4474  4479     1 
 4475  4477     1 
 4475  4478     1 
 4475  4479     1 
 4476  4483     1 
 4476  4484     1 
 4476  4485     1 
 4477  4480     1 
 4477  4481     1 
 4477  4482     1 
 4478  4480     1 
 4478  4481     1 
 4478  4482     1 
 4479  4486     1 
 4479  4487     1 
 4480  4483     1 
 4480  4484     1 
 4480  4485     1 
 4481  4483     1 
 4481  4484     1 
 4481  4485     1 
 4482  4488     1 
 4482  4489     1 
 4483  4486     1 
 4483  4487     1 
 4484  4486     1 
 4484  4487     1 
 4485  4490     1 
 4485  4491     1 
 4485  4492     1 
 4486  4488     1 
 4486  4489     1 
 4487  4493     1 
 4487  4494     1 
 4487  4495     1 
 4488  4490     1 
 4488  4491     1 
 4488  4492     1 
 4489  4496     1 
 4489  4497     1 
 4489  4498     1 
 4490  4493     1 
 4490  4494     1 
 4490  4495     1 
 4491  4493     1 
 4491  4494     1 
 4491  4495     1 
 4492  4499     1 
 4492  4500     1 
 4492  4501     1 
 4493  4496     1 
 4493  4497     1 
 4493  4498     1 
 4494  4496     1 
 4494  4497     1 
 4494  4498     1 
 4495  4502     1 
 4495  4503     1 
 4495  4504     1 
 4496  4499     1 
 4496  4500     1 
 4496  4501     1 
 4497  4499     1 
 4497  4500     1 
 4497  4501     1 
 4498  4505     1 
 4498  4506     1 
 4498  4507     1 
 4499  4502     1 
 4499  4503     1 
 4499  4504     1 
 4500  4502     1 
 4500  4503     1 
 4500  4504     1 
 4501  4508     1 
 4501  4509     1 
 4501  4510     1 
 4502  4505     1 
 4502  4506     1 
 4502  4507     1 
 4503  4505     1 
 4503  4506     1 
 4503  4507     1 
 4504  4511     1 
 4504  4512     1 
 4504  4513     1 
 4505  4508     1 
 4505  4509     1 
 4505  4510     1 
 4506  4508     1 
 4506  4509     1 
 4506  4510     1 
 4508  4511     1 
 4508  4512     1 
 4508  4513     1 
 4509  4511     1 
 4509  4512     1 
 4509  4513     1 
 4514  4521     1 
 4514  4522     1 
 4514  4523     1 
 4515  4518     1 
 4515  4519     1 
 4515  4520     1 
 4516  4518     1 
 4516  4519     1 
 4516  4520     1 
 4517  4524     1 
 4517  4525     1 
 4517  4526     1 
 4518  4521     1 
 4518  4522     1 
 4518  4523     1 
 4519  4521     1 
 4519  4522     1 
 4519  4523     1 
 4520  4527     1 
 4520  4528     1 
 4520  4529     1 
 4521  4524     1 
 4521  4525     1 
 4521  4526     1 
 4522  4524     1 
 4522  4525     1 
 4522  4526     1 
 4523  4530     1 
 4523  4531     1 
 4523  4532     1 
 4524  4527     1 
 4524  4528     1 
 4524  4529     1 
 4525  4527     1 
 4525  4528     1 
 4525  4529     1 
 4526  4533     1 
 4526  4534     1 
 4526  4535     1 
 4527  4530     1 
 4527  4531     1 
 4527  4532     1 
 4528  4530     1 
 4528  4531     1 
 4528  4532     1 
 4529  4536     1 
 4529  4537     1 
 4529  4538     1 
 4530  4533     1 
 4530  4534     1 
 4530  4535     1 
 4531  4533     1 
 4531  4534     1 
 4531  4535     1 
 4532  4539     1 
 4532  4540     1 
 4532  4541     1 
 4533  4536     1 
 4533  4537     1 
 4533  4538     1 
 4534  4536     1 
 4534  4537     1 
 4534  4538     1 
 4535  4542     1 
 4535  4543     1 
 4535  4544     1 
 4536  4539     1 
 4536  4540     1 
 4536  4541     1 
 4537  4539     1 
 4537  4540     1 
 4537  4541     1 
 4538  4545     1 
 4538  4546     1 
 4538  4547     1 
 4539  4542     1 
 4539  4543     1 
 4539  4544     1 
 4540  4542     1 
 4540  4543     1 
 4540  4544     1 
 4541  4548     1 
 4541  4549     1 
 4541  4550     1 
 4542  4545     1 
 4542  4546     1 
 4542  4547     1 
 4543  4545     1 
 4543  4546     1 
 4543  4547     1 
 4544  4551     1 
 4544  4552     1 
 4544  4553     1 
 4545  4548     1 
 4545  4549     1 
 4545  4550     1 
 4546  4548     1 
 4546  4549     1 
 4546  4550     1 
 4547  4554     1 
 4547  4555     1 
 4547  4556     1 
 4548  4551     1 
 4548  4552     1 
 4548  4553     1 
 4549  4551     1 
 4549  4552     1 
 4549  4553     1 
 4551  4554     1 
 4551  4555     1 
 4551  4556     1 
 4552  4554     1 
 4552  4555     1 
 4552  4556     1 
 4557  4574     1 
 4557  4575     1 
 4557  4579     1 
 4558  4562     1 
 4558  4563     1 
 4558  4564     1 
 4558  4566     1 
 4558  4567     1 
 4558  4568     1 
 4558  4570     1 
 4558  4571     1 
 4558  4572     1 
 4558  4576     1 
 4559  4561     1 
 4559  4565     1 
 4559  4569     1 
 4559  4574     1 
 4559  4575     1 
 4559  4579     1 
 4560  4561     1 
 4560  4565     1 
 4560  4569     1 
 4560  4574     1 
 4560  4575     1 
 4560  4579     1 
 4561  4566     1 
 4561  4567     1 
 4561  4568     1 
 4561  4570     1 
 4561  4571     1 
 4561  4572     1 
 4561  4573     1 
 4562  4565     1 
 4562  4569     1 
 4563  4565     1 
 4563  4569     1 
 4564  4565     1 
 4564  4569     1 
 4565  4570     1 
 4565  4571     1 
 4565  4572     1 
 4565  4573     1 
 4566  4569     1 
 4567  4569     1 
 4568  4569     1 
 4569  4573     1 
 4573  4577     1 
 4573  4578     1 
 4573  4580     1 
 4574  4576     1 
 4575  4576     1 
 4576  4582     1 
 4576  4583     1 
 4576  4584     1 
 4577  4581     1 
 4578  4581     1 
 4579  4581     1 
 4580  4585     1 
 4580  4586     1 
 4580  4592     1 
 4581  4587     1 
 4581  4593     1 
 4581  4594     1 
 4581  4595     1 
 4582  4585     1 
 4582  4586     1 
 4582  4592     1 
 4583  4585     1 
 4583  4586     1 
 4583  4592     1 
 4584  4588     1 
 4584  4589     1 
 4584  4596     1 
 4585  4587     1 
 4585  4593     1 
 4585  4594     1 
 4585  4595     1 
 4586  4590     1 
 4586  4591     1 
 4586  4593     1 
 4586  4594     1 
 4586  4595     1 
 4586  4601     1 
 4587  4592     1 
 4587  4602     1 
 4587  4603     1 
 4587  4604     1 
 4588  4590     1 
 4588  4591     1 
 4588  4601     1 
 4589  4605     1 
 4589  4606     1 
 4589  4607     1 
 4590  4602     1 
 4590  4603     1 
 4590  4604     1 
 4591  4602     1 
 4591  4603     1 
 4591  4604     1 
 4592  4597     1 
 4592  4598     1 
 4593  4596     1 
 4594  4596     1 
 4595  4599     1 
 4595  4600     1 
 4595  4648     1 
 4596  4649     1 
 4596  4650     1 
 4596  4651     1 
 4597  4599     1 
 4597  4600     1 
 4597  4648     1 
 4598  4652     1 
 4598  4653     1 
 4598  4654     1 
 4599  4649     1 
 4599  4650     1 
 4599  4651     1 
 4600  4649     1 
 4600  4650     1 
 4600  4651     1 
 4601  4608     1 
 4601  4609     1 
 4601  4610     1 
 4602  4605     1 
 4602  4606     1 
 4602  4607     1 
 4603  4605     1 
 4603  4606     1 
 4603  4607     1 
 4604  4611     1 
 4604  4612     1 
 4604  4613     1 
 4605  4608     1 
 4605  4609     1 
 4605  4610     1 
 4606  4608     1 
 4606  4609     1 
 4606  4610     1 
 4607  4614     1 
 4607  4615     1 
 4607  4616     1 
 4608  4611     1 
 4608  4612     1 
 4608  4613     1 
 4609  4611     1 
 4609  4612     1 
 4609  4613     1 
 4610  4617     1 
 4610  4618     1 
 4610  4619     1 
 4611  4614     1 
 4611  4615     1 
 4611  4616     1 
 4612  4614     1 
 4612  4615     1 
 4612  4616     1 
 4613  4620     1 
 4613  4621     1 
 4614  4617     1 
 4614  4618     1 
 4614  4619     1 
 4615  4617     1 
 4615  4618     1 
 4615  4619     1 
 4616  4622     1 
 4616  4623     1 
 4617  4620     1 
 4617  4621     1 
 4618  4620     1 
 4618  4621     1 
 4619  4624     1 
 4619  4625     1 
 4619  4626     1 
 4620  4622     1 
 4620  4623     1 
 4621  4627     1 
 4621  4628     1 
 4621  4629     1 
 4622  4624     1 
 4622  4625     1 
 4622  4626     1 
 4623  4630     1 
 4623  4631     1 
 4623  4632     1 
 4624  4627     1 
 4624  4628     1 
 4624  4629     1 
 4625  4627     1 
 4625  4628     1 
 4625  4629     1 
 4626  4633     1 
 4626  4634     1 
 4626  4635     1 
 4627  4630     1 
 4627  4631     1 
 4627  4632     1 
 4628  4630     1 
 4628  4631     1 
 4628  4632     1 
 4629  4636     1 
 4629  4637     1 
 4629  4638     1 
 4630  4633     1 
 4630  4634     1 
 4630  4635     1 
 4631  4633     1 
 4631  4634     1 
 4631  4635     1 
 4632  4639     1 
 4632  4640     1 
 4632  4641     1 
 4633  4636     1 
 4633  4637     1 
 4633  4638     1 
 4634  4636     1 
 4634  4637     1 
 4634  4638     1 
 4635  4642     1 
 4635  4643     1 
 4635  4644     1 
 4636  4639     1 
 4636  4640     1 
 4636  4641     1 
 4637  4639     1 
 4637  4640     1 
 4637  4641     1 
 4638  4645     1 
 4638  4646     1 
 4638  4647     1 
 4639  4642     1 
 4639  4643     1 
 4639  4644     1 
 4640  4642     1 
 4640  4643     1 
 4640  4644     1 
 4642  4645     1 
 4642  4646     1 
 4642  4647     1 
 4643  4645     1 
 4643  4646     1 
 4643  4647     1 
 4648  4655     1 
 4648  4656     1 
 4648  4657     1 
 4649  4652     1 
 4649  4653     1 
 4649  4654     1 
 4650  4652     1 
 4650  4653     1 
 4650  4654     1 
 4651  4658     1 
 4651  4659     1 
 4651  4660     1 
 4652  4655     1 
 4652  4656     1 
 4652  4657     1 
 4653  4655     1 
 4653  4656     1 
 4653  4657     1 
 4654  4661     1 
 4654  4662     1 
 4654  4663     1 
 4655  4658     1 
 4655  4659     1 
 4655  4660     1 
 4656  4658     1 
 4656  4659     1 
 4656  4660     1 
 4657  4664     1 
 4657  4665     1 
 4657  4666     1 
 4658  4661     1 
 4658  4662     1 
 4658  4663     1 
 4659  4661     1 
 4659  4662     1 
 4659  4663     1 
 4660  4667     1 
 4660  4668     1 
 4660  4669     1 
 4661  4664     1 
 4661  4665     1 
 4661  4666     1 
 4662  4664     1 
 4662  4665     1 
 4662  4666     1 
 4663  4670     1 
 4663  4671     1 
 4663  4672     1 
 4664  4667     1 
 4664  4668     1 
 4664  4669     1 
 4665  4667     1 
 4665  4668     1 
 4665  4669     1 
 4666  4673     1 
 4666  4674     1 
 4666  4675     1 
 4667  4670     1 
 4667  4671     1 
 4667  4672     1 
 4668  4670     1 
 4668  4671     1 
 4668  4672     1 
 4669  4676     1 
 4669  4677     1 
 4669  4678     1 
 4670  4673     1 
 4670  4674     1 
 4670  4675     1 
 4671  4673     1 
 4671  4674     1 
 4671  4675     1 
 4672  4679     1 
 4672  4680     1 
 4672  4681     1 
 4673  4676     1 
 4673  4677     1 
 4673  4678     1 
 4674  4676     1 
 4674  4677     1 
 4674  4678     1 
 4675  4682     1 
 4675  4683     1 
 4675  4684     1 
 4676  4679     1 
 4676  4680     1 
 4676  4681     1 
 4677  4679     1 
 4677  4680     1 
 4677  4681     1 
 4678  4685     1 
 4678  4686     1 
 4678  4687     1 
 4679  4682     1 
 4679  4683     1 
 4679  4684     1 
 4680  4682     1 
 4680  4683     1 
 4680  4684     1 
 4681  4688     1 
 4681  4689     1 
 4681  4690     1 
 4682  4685     1 
 4682  4686     1 
 4682  4687     1 
 4683  4685     1 
 4683  4686     1 
 4683  4687     1 
 4685  4688     1 
 4685  4689     1 
 4685  4690     1 
 4686  4688     1 
 4686  4689     1 
 4686  4690     1 
 4691  4708     1 
 4691  4709     1 
 4691  4713     1 
 4692  4696     1 
 4692  4697     1 
 4692  4698     1 
 4692  4700     1 
 4692  4701     1 
 4692  4702     1 
 4692  4704     1 
 4692  4705     1 
 4692  4706     1 
 4692  4710     1 
 4693  4695     1 
 4693  4699     1 
 4693  4703     1 
 4693  4708     1 
 4693  4709     1 
 4693  4713     1 
 4694  4695     1 
 4694  4699     1 
 4694  4703     1 
 4694  4708     1 
 4694  4709     1 
 4694  4713     1 
 4695  4700     1 
 4695  4701     1 
 4695  4702     1 
 4695  4704     1 
 4695  4705     1 
 4695  4706     1 
 4695  4707     1 
 4696  4699     1 
 4696  4703     1 
 4697  4699     1 
 4697  4703     1 
 4698  4699     1 
 4698  4703     1 
 4699  4704     1 
 4699  4705     1 
 4699  4706     1 
 4699  4707     1 
 4700  4703     1 
 4701  4703     1 
 4702  4703     1 
 4703  4707     1 
 4707  4711     1 
 4707  4712     1 
 4707  4714     1 
 4708  4710     1 
 4709  4710     1 
 4710  4716     1 
 4710  4717     1 
 4710  4718     1 
 4711  4715     1 
 4712  4715     1 
 4713  4715     1 
 4714  4719     1 
 4714  4720     1 
 4714  4726     1 
 4715  4721     1 
 4715  4727     1 
 4715  4728     1 
 4715  4729     1 
 4716  4719     1 
 4716  4720     1 
 4716  4726     1 
 4717  4719     1 
 4717  4720     1 
 4717  4726     1 
 4718  4722     1 
 4718  4723     1 
 4718  4730     1 
 4719  4721     1 
 4719  4727     1 
 4719  4728     1 
 4719  4729     1 
 4720  4724     1 
 4720  4725     1 
 4720  4727     1 
 4720  4728     1 
 4720  4729     1 
 4720  4735     1 
 4721  4726     1 
 4721  4736     1 
 4721  4737     1 
 4721  4738     1 
 4722  4724     1 
 4722  4725     1 
 4722  4735     1 
 4723  4739     1 
 4723  4740     1 
 4723  4741     1 
 4724  4736     1 
 4724  4737     1 
 4724  4738     1 
 4725  4736     1 
 4725  4737     1 
 4725  4738     1 
 4726  4731     1 
 4726  4732     1 
 4727  4730     1 
 4728  4730     1 
 4729  4733     1 
 4729  4734     1 
 4729  4782     1 
 4730  4783     1 
 4730  4784     1 
 4730  4785     1 
 4731  4733     1 
 4731  4734     1 
 4731  4782     1 
 4732  4786     1 
 4732  4787     1 
 4732  4788     1 
 4733  4783     1 
 4733  4784     1 
 4733  4785     1 
 4734  4783     1 
 4734  4784     1 
 4734  4785     1 
 4735  4742     1 
 4735  4743     1 
 4735  4744     1 
 4736  4739     1 
 4736  4740     1 
 4736  4741     1 
 4737  4739     1 
 4737  4740     1 
 4737  4741     1 
 4738  4745     1 
 4738  4746     1 
 4738  4747     1 
 4739  4742     1 
 4739  4743     1 
 4739  4744     1 
 4740  4742     1 
 4740  4743     1 
 4740  4744     1 
 4741  4748     1 
 4741  4749     1 
 4741  4750     1 
 4742  4745     1 
 4742  4746     1 
 4742  4747     1 
 4743  4745     1 
 4743  4746     1 
 4743  4747     1 
 4744  4751     1 
 4744  4752     1 
 4744  4753     1 
 4745  4748     1 
 4745  4749     1 
 4745  4750     1 
 4746  4748     1 
 4746  4749     1 
 4746  4750     1 
 4747  4754     1 
 4747  4755     1 
 4748  4751     1 
 4748  4752     1 
 4748  4753     1 
 4749  4751     1 
 4749  4752     1 
 4749  4753     1 
 4750  4756     1 
 4750  4757     1 
 4751  4754     1 
 4751  4755     1 
 4752  4754     1 
 4752  4755     1 
 4753  4758     1 
 4753  4759     1 
 4753  4760     1 
 4754  4756     1 
 4754  4757     1 
 4755  4761     1 
 4755  4762     1 
 4755  4763     1 
 4756  4758     1 
 4756  4759     1 
 4756  4760     1 
 4757  4764     1 
 4757  4765     1 
 4757  4766     1 
 4758  4761     1 
 4758  4762     1 
 4758  4763     1 
 4759  4761     1 
 4759  4762     1 
 4759  4763     1 
 4760  4767     1 
 4760  4768     1 
 4760  4769     1 
 4761  4764     1 
 4761  4765     1 
 4761  4766     1 
 4762  4764     1 
 4762  4765     1 
 4762  4766     1 
 4763  4770     1 
 4763  4771     1 
 4763  4772     1 
 4764  4767     1 
 4764  4768     1 
 4764  4769     1 
 4765  4767     1 
 4765  4768     1 
 4765  4769     1 
 4766  4773     1 
 4766  4774     1 
 4766  4775     1 
 4767  4770     1 
 4767  4771     1 
 4767  4772     1 
 4768  4770     1 
 4768  4771     1 
 4768  4772     1 
 4769  4776     1 
 4769  4777     1 
 4769  4778     1 
 4770  4773     1 
 4770  4774     1 
 4770  4775     1 
 4771  4773     1 
 4771  4774     1 
 4771  4775     1 
 4772  4779     1 
 4772  4780     1 
 4772  4781     1 
 4773  4776     1 
 4773  4777     1 
 4773  4778     1 
 4774  4776     1 
 4774  4777     1 
 4774  4778     1 
 4776  4779     1 
 4776  4780     1 
 4776  4781     1 
 4777  4779     1 
 4777  4780     1 
 4777  4781     1 
 4782  4789     1 
 4782  4790     1 
 4782  4791     1 
 4783  4786     1 
 4783  4787     1 
 4783  4788     1 
 4784  4786     1 
 4784  4787     1 
 4784  4788     1 
 4785  4792     1 
 4785  4793     1 
 4785  4794     1 
 4786  4789     1 
 4786  4790     1 
 4786  4791     1 
 4787  4789     1 
 4787  4790     1 
 4787  4791     1 
 4788  4795     1 
 4788  4796     1 
 4788  4797     1 
 4789  4792     1 
 4789  4793     1 
 4789  4794     1 
 4790  4792     1 
 4790  4793     1 
 4790  4794     1 
 4791  4798     1 
 4791  4799     1 
 4791  4800     1 
 4792  4795     1 
 4792  4796     1 
 4792  4797     1 
 4793  4795     1 
 4793  4796     1 
 4793  4797     1 
 4794  4801     1 
 4794  4802     1 
 4794  4803     1 
 4795  4798     1 
 4795  4799     1 
 4795  4800     1 
 4796  4798     1 
 4796  4799     1 
 4796  4800     1 
 4797  4804     1 
 4797  4805     1 
 4797  4806     1 
 4798  4801     1 
 4798  4802     1 
 4798  4803     1 
 4799  4801     1 
 4799  4802     1 
 4799  4803     1 
 4800  4807     1 
 4800  4808     1 
 4800  4809     1 
 4801  4804     1 
 4801  4805     1 
 4801  4806     1 
 4802  4804     1 
 4802  4805     1 
 4802  4806     1 
 4803  4810     1 
 4803  4811     1 
 4803  4812     1 
 4804  4807     1 
 4804  4808     1 
 4804  4809     1 
 4805  4807     1 
 4805  4808     1 
 4805  4809     1 
 4806  4813     1 
 4806  4814     1 
 4806  4815     1 
 4807  4810     1 
 4807  4811     1 
 4807  4812     1 
 4808  4810     1 
 4808  4811     1 
 4808  4812     1 
 4809  4816     1 
 4809  4817     1 
 4809  4818     1 
 4810  4813     1 
 4810  4814     1 
 4810  4815     1 
 4811  4813     1 
 4811  4814     1 
 4811  4815     1 
 4812  4819     1 
 4812  4820     1 
 4812  4821     1 
 4813  4816     1 
 4813  4817     1 
 4813  4818     1 
 4814  4816     1 
 4814  4817     1 
 4814  4818     1 
 4815  4822     1 
 4815  4823     1 
 4815  4824     1 
 4816  4819     1 
 4816  4820     1 
 4816  4821     1 
 4817  4819     1 
 4817  4820     1 
 4817  4821     1 
 4819  4822     1 
 4819  4823     1 
 4819  4824     1 
 4820  4822     1 
 4820  4823     1 
 4820  4824     1 
 4825  4842     1 
 4825  4843     1 
 4825  4847     1 
 4826  4830     1 
 4826  4831     1 
 4826  4832     1 
 4826  4834     1 
 4826  4835     1 
 4826  4836     1 
 4826  4838     1 
 4826  4839     1 
 4826  4840     1 
 4826  4844     1 
 4827  4829     1 
 4827  4833     1 
 4827  4837     1 
 4827  4842     1 
 4827  4843     1 
 4827  4847     1 
 4828  4829     1 
 4828  4833     1 
 4828  4837     1 
 4828  4842     1 
 4828  4843     1 
 4828  4847     1 
 4829  4834     1 
 4829  4835     1 
 4829  4836     1 
 4829  4838     1 
 4829  4839     1 
 4829  4840     1 
 4829  4841     1 
 4830  4833     1 
 4830  4837     1 
 4831  4833     1 
 4831  4837     1 
 4832  4833     1 
 4832  4837     1 
 4833  4838     1 
 4833  4839     1 
 4833  4840     1 
 4833  4841     1 
 4834  4837     1 
 4835  4837     1 
 4836  4837     1 
 4837  4841     1 
 4841  4845     1 
 4841  4846     1 
 4841  4848     1 
 4842  4844     1 
 4843  4844     1 
 4844  4850     1 
 4844  4851     1 
 4844  4852     1 
 4845  4849     1 
 4846  4849     1 
 4847  4849     1 
 4848  4853     1 
 4848  4854     1 
 4848  4860     1 
 4849  4855     1 
 4849  4861     1 
 4849  4862     1 
 4849  4863     1 
 4850  4853     1 
 4850  4854     1 
 4850  4860     1 
 4851  4853     1 
 4851  4854     1 
 4851  4860     1 
 4852  4856     1 
 4852  4857     1 
 4852  4864     1 
 4853  4855     1 
 4853  4861     1 
 4853  4862     1 
 4853  4863     1 
 4854  4858     1 
 4854  4859     1 
 4854  4861     1 
 4854  4862     1 
 4854  4863     1 
 4854  4869     1 
 4855  4860     1 
 4855  4870     1 
 4855  4871     1 
 4855  4872     1 
 4856  4858     1 
 4856  4859     1 
 4856  4869     1 
 4857  4873     1 
 4857  4874     1 
 4857  4875     1 
 4858  4870     1 
 4858  4871     1 
 4858  4872     1 
 4859  4870     1 
 4859  4871     1 
 4859  4872     1 
 4860  4865     1 
 4860  4866     1 
 4861  4864     1 
 4862  4864     1 
 4863  4867     1 
 4863  4868     1 
 4863  4916     1 
 4864  4917     1 
 4864  4918     1 
 4864  4919     1 
 4865  4867     1 
 4865  4868     1 
 4865  4916     1 
 4866  4920     1 
 4866  4921     1 
 4866  4922     1 
 4867  4917     1 
 4867  4918     1 
 4867  4919     1 
 4868  4917     1 
 4868  4918     1 
 4868  4919     1 
 4869  4876     1 
 4869  4877     1 
 4869  4878     1 
 4870  4873     1 
 4870  4874     1 
 4870  4875     1 
 4871  4873     1 
 4871  4874     1 
 4871  4875     1 
 4872  4879     1 
 4872  4880     1 
 4872  4881     1 
 4873  4876     1 
 4873  4877     1 
 4873  4878     1 
 4874  4876     1 
 4874  4877     1 
 4874  4878     1 
 4875  4882     1 
 4875  4883     1 
 4875  4884     1 
 4876  4879     1 
 4876  4880     1 
 4876  4881     1 
 4877  4879     1 
 4877  4880     1 
 4877  4881     1 
 4878  4885     1 
 4878  4886     1 
 4878  4887     1 
 4879  4882     1 
 4879  4883     1 
 4879  4884     1 
 4880  4882     1 
 4880  4883     1 
 4880  4884     1 
 4881  4888     1 
 4881  4889     1 
 4882  4885     1 
 4882  4886     1 
 4882  4887     1 
 4883  4885     1 
 4883  4886     1 
 4883  4887     1 
 4884  4890     1 
 4884  4891     1 
 4885  4888     1 
 4885  4889     1 
 4886  4888     1 
 4886  4889     1 
 4887  4892     1 
 4887  4893     1 
 4887  4894     1 
 4888  4890     1 
 4888  4891     1 
 4889  4895     1 
 4889  4896     1 
 4889  4897     1 
 4890  4892     1 
 4890  4893     1 
 4890  4894     1 
 4891  4898     1 
 4891  4899     1 
 4891  4900     1 
 4892  4895     1 
 4892  4896     1 
 4892  4897     1 
 4893  4895     1 
 4893  4896     1 
 4893  4897     1 
 4894  4901     1 
 4894  4902     1 
 4894  4903     1 
 4895  4898     1 
 4895  4899     1 
 4895  4900     1 
 4896  4898     1 
 4896  4899     1 
 4896  4900     1 
 4897  4904     1 
 4897  4905     1 
 4897  4906     1 
 4898  4901     1 
 4898  4902     1 
 4898  4903     1 
 4899  4901     1 
 4899  4902     1 
 4899  4903     1 
 4900  4907     1 
 4900  4908     1 
 4900  4909     1 
 4901  4904     1 
 4901  4905     1 
 4901  4906     1 
 4902  4904     1 
 4902  4905     1 
 4902  4906     1 
 4903  4910     1 
 4903  4911     1 
 4903  4912     1 
 4904  4907     1 
 4904  4908     1 
 4904  4909     1 
 4905  4907     1 
 4905  4908     1 
 4905  4909     1 
 4906  4913     1 
 4906  4914     1 
 4906  4915     1 
 4907  4910     1 
 4907  4911     1 
 4907  4912     1 
 4908  4910     1 
 4908  4911     1 
 4908  4912     1 
 4910  4913     1 
 4910  4914     1 
 4910  4915     1 
 4911  4913     1 
 4911  4914     1 
 4911  4915     1 
 4916  4923     1 
 4916  4924     1 
 4916  4925     1 
 4917  4920     1 
 4917  4921     1 
 4917  4922     1 
 4918  4920     1 
 4918  4921     1 
 4918  4922     1 
 4919  4926     1 
 4919  4927     1 
 4919  4928     1 
 4920  4923     1 
 4920  4924     1 
 4920  4925     1 
 4921  4923     1 
 4921  4924     1 
 4921  4925     1 
 4922  4929     1 
 4922  4930     1 
 4922  4931     1 
 4923  4926     1 
 4923  4927     1 
 4923  4928     1 
 4924  4926     1 
 4924  4927     1 
 4924  4928     1 
 4925  4932     1 
 4925  4933     1 
 4925  4934     1 
 4926  4929     1 
 4926  4930     1 
 4926  4931     1 
 4927  4929     1 
 4927  4930     1 
 4927  4931     1 
 4928  4935     1 
 4928  4936     1 
 4928  4937     1 
 4929  4932     1 
 4929  4933     1 
 4929  4934     1 
 4930  4932     1 
 4930  4933     1 
 4930  4934     1 
 4931  4938     1 
 4931  4939     1 
 4931  4940     1 
 4932  4935     1 
 4932  4936     1 
 4932  4937     1 
 4933  4935     1 
 4933  4936     1 
 4933  4937     1 
 4934  4941     1 
 4934  4942     1 
 4934  4943     1 
 4935  4938     1 
 4935  4939     1 
 4935  4940     1 
 4936  4938     1 
 4936  4939     1 
 4936  4940     1 
 4937  4944     1 
 4937  4945     1 
 4937  4946     1 
 4938  4941     1 
 4938  4942     1 
 4938  4943     1 
 4939  4941     1 
 4939  4942     1 
 4939  4943     1 
 4940  4947     1 
 4940  4948     1 
 4940  4949     1 
 4941  4944     1 
 4941  4945     1 
 4941  4946     1 
 4942  4944     1 
 4942  4945     1 
 4942  4946     1 
 4943  4950     1 
 4943  4951     1 
 4943  4952     1 
 4944  4947     1 
 4944  4948     1 
 4944  4949     1 
 4945  4947     1 
 4945  4948     1 
 4945  4949     1 
 4946  4953     1 
 4946  4954     1 
 4946  4955     1 
 4947  4950     1 
 4947  4951     1 
 4947  4952     1 
 4948  4950     1 
 4948  4951     1 
 4948  4952     1 
 4949  4956     1 
 4949  4957     1 
 4949  4958     1 
 4950  4953     1 
 4950  4954     1 
 4950  4955     1 
 4951  4953     1 
 4951  4954     1 
 4951  4955     1 
 4953  4956     1 
 4953  4957     1 
 4953  4958     1 
 4954  4956     1 
 4954  4957     1 
 4954  4958     1 
 4959  4976     1 
 4959  4977     1 
 4959  4981     1 
 4960  4964     1 
 4960  4965     1 
 4960  4966     1 
 4960  4968     1 
 4960  4969     1 
 4960  4970     1 
 4960  4972     1 
 4960  4973     1 
 4960  4974     1 
 4960  4978     1 
 4961  4963     1 
 4961  4967     1 
 4961  4971     1 
 4961  4976     1 
 4961  4977     1 
 4961  4981     1 
 4962  4963     1 
 4962  4967     1 
 4962  4971     1 
 4962  4976     1 
 4962  4977     1 
 4962  4981     1 
 4963  4968     1 
 4963  4969     1 
 4963  4970     1 
 4963  4972     1 
 4963  4973     1 
 4963  4974     1 
 4963  4975     1 
 4964  4967     1 
 4964  4971     1 
 4965  4967     1 
 4965  4971     1 
 4966  4967     1 
 4966  4971     1 
 4967  4972     1 
 4967  4973     1 
 4967  4974     1 
 4967  4975     1 
 4968  4971     1 
 4969  4971     1 
 4970  4971     1 
 4971  4975     1 
 4975  4979     1 
 4975  4980     1 
 4975  4982     1 
 4976  4978     1 
 4977  4978     1 
 4978  4984     1 
 4978  4985     1 
 4978  4986     1 
 4979  4983     1 
 4980  4983     1 
 4981  4983     1 
 4982  4987     1 
 4982  4988     1 
 4982  4994     1 
 4983  4989     1 
 4983  4995     1 
 4983  4996     1 
 4983  4997     1 
 4984  4987     1 
 4984  4988     1 
 4984  4994     1 
 4985  4987     1 
 4985  4988     1 
 4985  4994     1 
 4986  4990     1 
 4986  4991     1 
 4986  4998     1 
 4987  4989     1 
 4987  4995     1 
 4987  4996     1 
 4987  4997     1 
 4988  4992     1 
 4988  4993     1 
 4988  4995     1 
 4988  4996     1 
 4988  4997     1 
 4988  5003     1 
 4989  4994     1 
 4989  5004     1 
 4989  5005     1 
 4989  5006     1 
 4990  4992     1 
 4990  4993     1 
 4990  5003     1 
 4991  5007     1 
 4991  5008     1 
 4991  5009     1 
 4992  5004     1 
 4992  5005     1 
 4992  5006     1 
 4993  5004     1 
 4993  5005     1 
 4993  5006     1 
 4994  4999     1 
 4994  5000     1 
 4995  4998     1 
 4996  4998     1 
 4997  5001     1 
 4997  5002     1 
 4997  5050     1 
 4998  5051     1 
 4998  5052     1 
 4998  5053     1 
 4999  5001     1 
 4999  5002     1 
 4999  5050     1 
 5000  5054     1 
 5000  5055     1 
 5000  5056     1 
 5001  5051     1 
 5001  5052     1 
 5001  5053     1 
 5002  5051     1 
 5002  5052     1 
 5002  5053     1 
 5003  5010     1 
 5003  5011     1 
 5003  5012     1 
 5004  5007     1 
 5004  5008     1 
 5004  5009     1 
 5005  5007     1 
 5005  5008     1 
 5005  5009     1 
 5006  5013     1 
 5006  5014     1 
 5006  5015     1 
 5007  5010     1 
 5007  5011     1 
 5007  5012     1 
 5008  5010     1 
 5008  5011     1 
 5008  5012     1 
 5009  5016     1 
 5009  5017     1 
 5009  5018     1 
 5010  5013     1 
 5010  5014     1 
 5010  5015     1 
 5011  5013     1 
 5011  5014     1 
 5011  5015     1 
 5012  5019     1 
 5012  5020     1 
 5012  5021     1 
 5013  5016     1 
 5013  5017     1 
 5013  5018     1 
 5014  5016     1 
 5014  5017     1 
 5014  5018     1 
 5015  5022     1 
 5015  5023     1 
 5016  5019     1 
 5016  5020     1 
 5016  5021     1 
 5017  5019     1 
 5017  5020     1 
 5017  5021     1 
 5018  5024     1 
 5018  5025     1 
 5019  5022     1 
 5019  5023     1 
 5020  5022     1 
 5020  5023     1 
 5021  5026     1 
 5021  5027     1 
 5021  5028     1 
 5022  5024     1 
 5022  5025     1 
 5023  5029     1 
 5023  5030     1 
 5023  5031     1 
 5024  5026     1 
 5024  5027     1 
 5024  5028     1 
 5025  5032     1 
 5025  5033     1 
 5025  5034     1 
 5026  5029     1 
 5026  5030     1 
 5026  5031     1 
 5027  5029     1 
 5027  5030     1 
 5027  5031     1 
 5028  5035     1 
 5028  5036     1 
 5028  5037     1 
 5029  5032     1 
 5029  5033     1 
 5029  5034     1 
 5030  5032     1 
 5030  5033     1 
 5030  5034     1 
 5031  5038     1 
 5031  5039     1 
 5031  5040     1 
 5032  5035     1 
 5032  5036     1 
 5032  5037     1 
 5033  5035     1 
 5033  5036     1 
 5033  5037     1 
 5034  5041     1 
 5034  5042     1 
 5034  5043     1 
 5035  5038     1 
 5035  5039     1 
 5035  5040     1 
 5036  5038     1 
 5036  5039     1 
 5036  5040     1 
 5037  5044     1 
 5037  5045     1 
 5037  5046     1 
 5038  5041     1 
 5038  5042     1 
 5038  5043     1 
 5039  5041     1 
 5039  5042     1 
 5039  5043     1 
 5040  5047     1 
 5040  5048     1 
 5040  5049     1 
 5041  5044     1 
 5041  5045     1 
 5041  5046     1 
 5042  5044     1 
 5042  5045     1 
 5042  5046     1 
 5044  5047     1 
 5044  5048     1 
 5044  5049     1 
 5045  5047     1 
 5045  5048     1 
 5045  5049     1 
 5050  5057     1 
 5050  5058     1 
 5050  5059     1 
 5051  5054     1 
 5051  5055     1 
 5051  5056     1 
 5052  5054     1 
 5052  5055     1 
 5052  5056     1 
 5053  5060     1 
 5053  5061     1 
 5053  5062     1 
 5054  5057     1 
 5054  5058     1 
 5054  5059     1 
 5055  5057     1 
 5055  5058     1 
 5055  5059     1 
 5056  5063     1 
 5056  5064     1 
 5056  5065     1 
 5057  5060     1 
 5057  5061     1 
 5057  5062     1 
 5058  5060     1 
 5058  5061     1 
 5058  5062     1 
 5059  5066     1 
 5059  5067     1 
 5059  5068     1 
 5060  5063     1 
 5060  5064     1 
 5060  5065     1 
 5061  5063     1 
 5061  5064     1 
 5061  5065     1 
 5062  5069     1 
 5062  5070     1 
 5062  5071     1 
 5063  5066     1 
 5063  5067     1 
 5063  5068     1 
 5064  5066     1 
 5064  5067     1 
 5064  5068     1 
 5065  5072     1 
 5065  5073     1 
 5065  5074     1 
 5066  5069     1 
 5066  5070     1 
 5066  5071     1 
 5067  5069     1 
 5067  5070     1 
 5067  5071     1 
 5068  5075     1 
 5068  5076     1 
 5068  5077     1 
 5069  5072     1 
 5069  5073     1 
 5069  5074     1 
 5070  5072     1 
 5070  5073     1 
 5070  5074     1 
 5071  5078     1 
 5071  5079     1 
 5071  5080     1 
 5072  5075     1 
 5072  5076     1 
 5072  5077     1 
 5073  5075     1 
 5073  5076     1 
 5073  5077     1 
 5074  5081     1 
 5074  5082     1 
 5074  5083     1 
 5075  5078     1 
 5075  5079     1 
 5075  5080     1 
 5076  5078     1 
 5076  5079     1 
 5076  5080     1 
 5077  5084     1 
 5077  5085     1 
 5077  5086     1 
 5078  5081     1 
 5078  5082     1 
 5078  5083     1 
 5079  5081     1 
 5079  5082     1 
 5079  5083     1 
 5080  5087     1 
 5080  5088     1 
 5080  5089     1 
 5081  5084     1 
 5081  5085     1 
 5081  5086     1 
 5082  5084     1 
 5082  5085     1 
 5082  5086     1 
 5083  5090     1 
 5083  5091     1 
 5083  5092     1 
 5084  5087     1 
 5084  5088     1 
 5084  5089     1 
 5085  5087     1 
 5085  5088     1 
 5085  5089     1 
 5087  5090     1 
 5087  5091     1 
 5087  5092     1 
 5088  5090     1 
 5088  5091     1 
 5088  5092     1 
 5093  5110     1 
 5093  5111     1 
 5093  5115     1 
 5094  5098     1 
 5094  5099     1 
 5094  5100     1 
 5094  5102     1 
 5094  5103     1 
 5094  5104     1 
 5094  5106     1 
 5094  5107     1 
 5094  5108     1 
 5094  5112     1 
 5095  5097     1 
 5095  5101     1 
 5095  5105     1 
 5095  5110     1 
 5095  5111     1 
 5095  5115     1 
 5096  5097     1 
 5096  5101     1 
 5096  5105     1 
 5096  5110     1 
 5096  5111     1 
 5096  5115     1 
 5097  5102     1 
 5097  5103     1 
 5097  5104     1 
 5097  5106     1 
 5097  5107     1 
 5097  5108     1 
 5097  5109     1 
 5098  5101     1 
 5098  5105     1 
 5099  5101     1 
 5099  5105     1 
 5100  5101     1 
 5100  5105     1 
 5101  5106     1 
 5101  5107     1 
 5101  5108     1 
 5101  5109     1 
 5102  5105     1 
 5103  5105     1 
 5104  5105     1 
 5105  5109     1 
 5109  5113     1 
 5109  5114     1 
 5109  5116     1 
 5110  5112     1 
 5111  5112     1 
 5112  5118     1 
 5112  5119     1 
 5112  5120     1 
 5113  5117     1 
 5114  5117     1 
 5115  5117     1 
 5116  5121     1 
 5116  5122     1 
 5116  5128     1 
 5117  5123     1 
 5117  5129     1 
 5117  5130     1 
 5117  5131     1 
 5118  5121     1 
 5118  5122     1 
 5118  5128     1 
 5119  5121     1 
 5119  5122     1 
 5119  5128     1 
 5120  5124     1 
 5120  5125     1 
 5120  5132     1 
 5121  5123     1 
 5121  5129     1 
 5121  5130     1 
 5121  5131     1 
 5122  5126     1 
 5122  5127     1 
 5122  5129     1 
 5122  5130     1 
 5122  5131     1 
 5122  5137     1 
 5123  5128     1 
 5123  5138     1 
 5123  5139     1 
 5123  5140     1 
 5124  5126     1 
 5124  5127     1 
 5124  5137     1 
 5125  5141     1 
 5125  5142     1 
 5125  5143     1 
 5126  5138     1 
 5126  5139     1 
 5126  5140     1 
 5127  5138     1 
 5127  5139     1 
 5127  5140     1 
 5128  5133     1 
 5128  5134     1 
 5129  5132     1 
 5130  5132     1 
 5131  5135     1 
 5131  5136     1 
 5131  5184     1 
 5132  5185     1 
 5132  5186     1 
 5132  5187     1 
 5133  5135     1 
 5133  5136     1 
 5133  5184     1 
 5134  5188     1 
 5134  5189     1 
 5134  5190     1 
 5135  5185     1 
 5135  5186     1 
 5135  5187     1 
 5136  5185     1 
 5136  5186     1 
 5136  5187     1 
 5137  5144     1 
 5137  5145     1 
 5137  5146     1 
 5138  5141     1 
 5138  5142     1 
 5138  5143     1 
 5139  5141     1 
 5139  5142     1 
 5139  5143     1 
 5140  5147     1 
 5140  5148     1 
 5140  5149     1 
 5141  5144     1 
 5141  5145     1 
 5141  5146     1 
 5142  5144     1 
 5142  5145     1 
 5142  5146     1 
 5143  5150     1 
 5143  5151     1 
 5143  5152     1 
 5144  5147     1 
 5144  5148     1 
 5144  5149     1 
 5145  5147     1 
 5145  5148     1 
 5145  5149     1 
 5146  5153     1 
 5146  5154     1 
 5146  5155     1 
 5147  5150     1 
 5147  5151     1 
 5147  5152     1 
 5148  5150     1 
 5148  5151     1 
 5148  5152     1 
 5149  5156     1 
 5149  5157     1 
 5150  5153     1 
 5150  5154     1 
 5150  5155     1 
 5151  5153     1 
 5151  5154     1 
 5151  5155     1 
 5152  5158     1 
 5152  5159     1 
 5153  5156     1 
 5153  5157     1 
 5154  5156     1 
 5154  5157     1 
 5155  5160     1 
 5155  5161     1 
 5155  5162     1 
 5156  5158     1 
 5156  5159     1 
 5157  5163     1 
 5157  5164     1 
 5157  5165     1 
 5158  5160     1 
 5158  5161     1 
 5158  5162     1 
 5159  5166     1 
 5159  5167     1 
 5159  5168     1 
 5160  5163     1 
 5160  5164     1 
 5160  5165     1 
 5161  5163     1 
 5161  5164     1 
 5161  5165     1 
 5162  5169     1 
 5162  5170     1 
 5162  5171     1 
 5163  5166     1 
 5163  5167     1 
 5163  5168     1 
 5164  5166     1 
 5164  5167     1 
 5164  5168     1 
 5165  5172     1 
 5165  5173     1 
 5165  5174     1 
 5166  5169     1 
 5166  5170     1 
 5166  5171     1 
 5167  5169     1 
 5167  5170     1 
 5167  5171     1 
 5168  5175     1 
 5168  5176     1 
 5168  5177     1 
 5169  5172     1 
 5169  5173     1 
 5169  5174     1 
 5170  5172     1 
 5170  5173     1 
 5170  5174     1 
 5171  5178     1 
 5171  5179     1 
 5171  5180     1 
 5172  5175     1 
 5172  5176     1 
 5172  5177     1 
 5173  5175     1 
 5173  5176     1 
 5173  5177     1 
 5174  5181     1 
 5174  5182     1 
 5174  5183     1 
 5175  5178     1 
 5175  5179     1 
 5175  5180     1 
 5176  5178     1 
 5176  5179     1 
 5176  5180     1 
 5178  5181     1 
 5178  5182     1 
 5178  5183     1 
 5179  5181     1 
 5179  5182     1 
 5179  5183     1 
 5184  5191     1 
 5184  5192     1 
 5184  5193     1 
 5185  5188     1 
 5185  5189     1 
 5185  5190     1 
 5186  5188     1 
 5186  5189     1 
 5186  5190     1 
 5187  5194     1 
 5187  5195     1 
 5187  5196     1 
 5188  5191     1 
 5188  5192     1 
 5188  5193     1 
 5189  5191     1 
 5189  5192     1 
 5189  5193     1 
 5190  5197     1 
 5190  5198     1 
 5190  5199     1 
 5191  5194     1 
 5191  5195     1 
 5191  5196     1 
 5192  5194     1 
 5192  5195     1 
 5192  5196     1 
 5193  5200     1 
 5193  5201     1 
 5193  5202     1 
 5194  5197     1 
 5194  5198     1 
 5194  5199     1 
 5195  5197     1 
 5195  5198     1 
 5195  5199     1 
 5196  5203     1 
 5196  5204     1 
 5196  5205     1 
 5197  5200     1 
 5197  5201     1 
 5197  5202     1 
 5198  5200     1 
 5198  5201     1 
 5198  5202     1 
 5199  5206     1 
 5199  5207     1 
 5199  5208     1 
 5200  5203     1 
 5200  5204     1 
 5200  5205     1 
 5201  5203     1 
 5201  5204     1 
 5201  5205     1 
 5202  5209     1 
 5202  5210     1 
 5202  5211     1 
 5203  5206     1 
 5203  5207     1 
 5203  5208     1 
 5204  5206     1 
 5204  5207     1 
 5204  5208     1 
 5205  5212     1 
 5205  5213     1 
 5205  5214     1 
 5206  5209     1 
 5206  5210     1 
 5206  5211     1 
 5207  5209     1 
 5207  5210     1 
 5207  5211     1 
 5208  5215     1 
 5208  5216     1 
 5208  5217     1 
 5209  5212     1 
 5209  5213     1 
 5209  5214     1 
 5210  5212     1 
 5210  5213     1 
 5210  5214     1 
 5211  5218     1 
 5211  5219     1 
 5211  5220     1 
 5212  5215     1 
 5212  5216     1 
 5212  5217     1 
 5213  5215     1 
 5213  5216     1 
 5213  5217     1 
 5214  5221     1 
 5214  5222     1 
 5214  5223     1 
 5215  5218     1 
 5215  5219     1 
 5215  5220     1 
 5216  5218     1 
 5216  5219     1 
 5216  5220     1 
 5217  5224     1 
 5217  5225     1 
 5217  5226     1 
 5218  5221     1 
 5218  5222     1 
 5218  5223     1 
 5219  5221     1 
 5219  5222     1 
 5219  5223     1 
 5221  5224     1 
 5221  5225     1 
 5221  5226     1 
 5222  5224     1 
 5222  5225     1 
 5222  5226     1 
 5227  5244     1 
 5227  5245     1 
 5227  5249     1 
 5228  5232     1 
 5228  5233     1 
 5228  5234     1 
 5228  5236     1 
 5228  5237     1 
 5228  5238     1 
 5228  5240     1 
 5228  5241     1 
 5228  5242     1 
 5228  5246     1 
 5229  5231     1 
 5229  5235     1 
 5229  5239     1 
 5229  5244     1 
 5229  5245     1 
 5229  5249     1 
 5230  5231     1 
 5230  5235     1 
 5230  5239     1 
 5230  5244     1 
 5230  5245     1 
 5230  5249     1 
 5231  5236     1 
 5231  5237     1 
 5231  5238     1 
 5231  5240     1 
 5231  5241     1 
 5231  5242     1 
 5231  5243     1 
 5232  5235     1 
 5232  5239     1 
 5233  5235     1 
 5233  5239     1 
 5234  5235     1 
 5234  5239     1 
 5235  5240     1 
 5235  5241     1 
 5235  5242     1 
 5235  5243     1 
 5236  5239     1 
 5237  5239     1 
 5238  5239     1 
 5239  5243     1 
 5243  5247     1 
 5243  5248     1 
 5243  5250     1 
 5244  5246     1 
 5245  5246     1 
 5246  5252     1 
 5246  5253     1 
 5246  5254     1 
 5247  5251     1 
 5248  5251     1 
 5249  5251     1 
 5250  5255     1 
 5250  5256     1 
 5250  5262     1 
 5251  5257     1 
 5251  5263     1 
 5251  5264     1 
 5251  5265     1 
 5252  5255     1 
 5252  5256     1 
 5252  5262     1 
 5253  5255     1 
 5253  5256     1 
 5253  5262     1 
 5254  5258     1 
 5254  5259     1 
 5254  5266     1 
 5255  5257     1 
 5255  5263     1 
 5255  5264     1 
 5255  5265     1 
 5256  5260     1 
 5256  5261     1 
 5256  5263     1 
 5256  5264     1 
 5256  5265     1 
 5256  5271     1 
 5257  5262     1 
 5257  5272     1 
 5257  5273     1 
 5257  5274     1 
 5258  5260     1 
 5258  5261     1 
 5258  5271     1 
 5259  5275     1 
 5259  5276     1 
 5259  5277     1 
 5260  5272     1 
 5260  5273     1 
 5260  5274     1 
 5261  5272     1 
 5261  5273     1 
 5261  5274     1 
 5262  5267     1 
 5262  5268     1 
 5263  5266     1 
 5264  5266     1 
 5265  5269     1 
 5265  5270     1 
 5265  5318     1 
 5266  5319     1 
 5266  5320     1 
 5266  5321     1 
 5267  5269     1 
 5267  5270     1 
 5267  5318     1 
 5268  5322     1 
 5268  5323     1 
 5268  5324     1 
 5269  5319     1 
 5269  5320     1 
 5269  5321     1 
 5270  5319     1 
 5270  5320     1 
 5270  5321     1 
 5271  5278     1 
 5271  5279     1 
 5271  5280     1 
 5272  5275     1 
 5272  5276     1 
 5272  5277     1 
 5273  5275     1 
 5273  5276     1 
 5273  5277     1 
 5274  5281     1 
 5274  5282     1 
 5274  5283     1 
 5275  5278     1 
 5275  5279     1 
 5275  5280     1 
 5276  5278     1 
 5276  5279     1 
 5276  5280     1 
 5277  5284     1 
 5277  5285     1 
 5277  5286     1 
 5278  5281     1 
 5278  5282     1 
 5278  5283     1 
 5279  5281     1 
 5279  5282     1 
 5279  5283     1 
 5280  5287     1 
 5280  5288     1 
 5280  5289     1 
 5281  5284     1 
 5281  5285     1 
 5281  5286     1 
 5282  5284     1 
 5282  5285     1 
 5282  5286     1 
 5283  5290     1 
 5283  5291     1 
 5284  5287     1 
 5284  5288     1 
 5284  5289     1 
 5285  5287     1 
 5285  5288     1 
 5285  5289     1 
 5286  5292     1 
 5286  5293     1 
 5287  5290     1 
 5287  5291     1 
 5288  5290     1 
 5288  5291     1 
 5289  5294     1 
 5289  5295     1 
 5289  5296     1 
 5290  5292     1 
 5290  5293     1 
 5291  5297     1 
 5291  5298     1 
 5291  5299     1 
 5292  5294     1 
 5292  5295     1 
 5292  5296     1 
 5293  5300     1 
 5293  5301     1 
 5293  5302     1 
 5294  5297     1 
 5294  5298     1 
 5294  5299     1 
 5295  5297     1 
 5295  5298     1 
 5295  5299     1 
 5296  5303     1 
 5296  5304     1 
 5296  5305     1 
 5297  5300     1 
 5297  5301     1 
 5297  5302     1 
 5298  5300     1 
 5298  5301     1 
 5298  5302     1 
 5299  5306     1 
 5299  5307     1 
 5299  5308     1 
 5300  5303     1 
 5300  5304     1 
 5300  5305     1 
 5301  5303     1 
 5301  5304     1 
 5301  5305     1 
 5302  5309     1 
 5302  5310     1 
 5302  5311     1 
 5303  5306     1 
 5303  5307     1 
 5303  5308     1 
 5304  5306     1 
 5304  5307     1 
 5304  5308     1 
 5305  5312     1 
 5305  5313     1 
 5305  5314     1 
 5306  5309     1 
 5306  5310     1 
 5306  5311     1 
 5307  5309     1 
 5307  5310     1 
 5307  5311     1 
 5308  5315     1 
 5308  5316     1 
 5308  5317     1 
 5309  5312     1 
 5309  5313     1 
 5309  5314     1 
 5310  5312     1 
 5310  5313     1 
 5310  5314     1 
 5312  5315     1 
 5312  5316     1 
 5312  5317     1 
 5313  5315     1 
 5313  5316     1 
 5313  5317     1 
 5318  5325     1 
 5318  5326     1 
 5318  5327     1 
 5319  5322     1 
 5319  5323     1 
 5319  5324     1 
 5320  5322     1 
 5320  5323     1 
 5320  5324     1 
 5321  5328     1 
 5321  5329     1 
 5321  5330     1 
 5322  5325     1 
 5322  5326     1 
 5322  5327     1 
 5323  5325     1 
 5323  5326     1 
 5323  5327     1 
 5324  5331     1 
 5324  5332     1 
 5324  5333     1 
 5325  5328     1 
 5325  5329     1 
 5325  5330     1 
 5326  5328     1 
 5326  5329     1 
 5326  5330     1 
 5327  5334     1 
 5327  5335     1 
 5327  5336     1 
 5328  5331     1 
 5328  5332     1 
 5328  5333     1 
 5329  5331     1 
 5329  5332     1 
 5329  5333     1 
 5330  5337     1 
 5330  5338     1 
 5330  5339     1 
 5331  5334     1 
 5331  5335     1 
 5331  5336     1 
 5332  5334     1 
 5332  5335     1 
 5332  5336     1 
 5333  5340     1 
 5333  5341     1 
 5333  5342     1 
 5334  5337     1 
 5334  5338     1 
 5334  5339     1 
 5335  5337     1 
 5335  5338     1 
 5335  5339     1 
 5336  5343     1 
 5336  5344     1 
 5336  5345     1 
 5337  5340     1 
 5337  5341     1 
 5337  5342     1 
 5338  5340     1 
 5338  5341     1 
 5338  5342     1 
 5339  5346     1 
 5339  5347     1 
 5339  5348     1 
 5340  5343     1 
 5340  5344     1 
 5340  5345     1 
 5341  5343     1 
 5341  5344     1 
 5341  5345     1 
 5342  5349     1 
 5342  5350     1 
 5342  5351     1 
 5343  5346     1 
 5343  5347     1 
 5343  5348     1 
 5344  5346     1 
 5344  5347     1 
 5344  5348     1 
 5345  5352     1 
 5345  5353     1 
 5345  5354     1 
 5346  5349     1 
 5346  5350     1 
 5346  5351     1 
 5347  5349     1 
 5347  5350     1 
 5347  5351     1 
 5348  5355     1 
 5348  5356     1 
 5348  5357     1 
 5349  5352     1 
 5349  5353     1 
 5349  5354     1 
 5350  5352     1 
 5350  5353     1 
 5350  5354     1 
 5351  5358     1 
 5351  5359     1 
 5351  5360     1 
 5352  5355     1 
 5352  5356     1 
 5352  5357     1 
 5353  5355     1 
 5353  5356     1 
 5353  5357     1 
 5355  5358     1 
 5355  5359     1 
 5355  5360     1 
 5356  5358     1 
 5356  5359     1 
 5356  5360     1 
 5361  5378     1 
 5361  5379     1 
 5361  5383     1 
 5362  5366     1 
 5362  5367     1 
 5362  5368     1 
 5362  5370     1 
 5362  5371     1 
 5362  5372     1 
 5362  5374     1 
 5362  5375     1 
 5362  5376     1 
 5362  5380     1 
 5363  5365     1 
 5363  5369     1 
 5363  5373     1 
 5363  5378     1 
 5363  5379     1 
 5363  5383     1 
 5364  5365     1 
 5364  5369     1 
 5364  5373     1 
 5364  5378     1 
 5364  5379     1 
 5364  5383     1 
 5365  5370     1 
 5365  5371     1 
 5365  5372     1 
 5365  5374     1 
 5365  5375     1 
 5365  5376     1 
 5365  5377     1 
 5366  5369     1 
 5366  5373     1 
 5367  5369     1 
 5367  5373     1 
 5368  5369     1 
 5368  5373     1 
 5369  5374     1 
 5369  5375     1 
 5369  5376     1 
 5369  5377     1 
 5370  5373     1 
 5371  5373     1 
 5372  5373     1 
 5373  5377     1 
 5377  5381     1 
 5377  5382     1 
 5377  5384     1 
 5378  5380     1 
 5379  5380     1 
 5380  5386     1 
 5380  5387     1 
 5380  5388     1 
 5381  5385     1 
 5382  5385     1 
 5383  5385     1 
 5384  5389     1 
 5384  5390     1 
 5384  5396     1 
 5385  5391     1 
 5385  5397     1 
 5385  5398     1 
 5385  5399     1 
 5386  5389     1 
 5386  5390     1 
 5386  5396     1 
 5387  5389     1 
 5387  5390     1 
 5387  5396     1 
 5388  5392     1 
 5388  5393     1 
 5388  5400     1 
 5389  5391     1 
 5389  5397     1 
 5389  5398     1 
 5389  5399     1 
 5390  5394     1 
 5390  5395     1 
 5390  5397     1 
 5390  5398     1 
 5390  5399     1 
 5390  5405     1 
 5391  5396     1 
 5391  5406     1 
 5391  5407     1 
 5391  5408     1 
 5392  5394     1 
 5392  5395     1 
 5392  5405     1 
 5393  5409     1 
 5393  5410     1 
 5393  5411     1 
 5394  5406     1 
 5394  5407     1 
 5394  5408     1 
 5395  5406     1 
 5395  5407     1 
 5395  5408     1 
 5396  5401     1 
 5396  5402     1 
 5397  5400     1 
 5398  5400     1 
 5399  5403     1 
 5399  5404     1 
 5399  5452     1 
 5400  5453     1 
 5400  5454     1 
 5400  5455     1 
 5401  5403     1 
 5401  5404     1 
 5401  5452     1 
 5402  5456     1 
 5402  5457     1 
 5402  5458     1 
 5403  5453     1 
 5403  5454     1 
 5403  5455     1 
 5404  5453     1 
 5404  5454     1 
 5404  5455     1 
 5405  5412     1 
 5405  5413     1 
 5405  5414     1 
 5406  5409     1 
 5406  5410     1 
 5406  5411     1 
 5407  5409     1 
 5407  5410     1 
 5407  5411     1 
 5408  5415     1 
 5408  5416     1 
 5408  5417     1 
 5409  5412     1 
 5409  5413     1 
 5409  5414     1 
 5410  5412     1 
 5410  5413     1 
 5410  5414     1 
 5411  5418     1 
 5411  5419     1 
 5411  5420     1 
 5412  5415     1 
 5412  5416     1 
 5412  5417     1 
 5413  5415     1 
 5413  5416     1 
 5413  5417     1 
 5414  5421     1 
 5414  5422     1 
 5414  5423     1 
 5415  5418     1 
 5415  5419     1 
 5415  5420     1 
 5416  5418     1 
 5416  5419     1 
 5416  5420     1 
 5417  5424     1 
 5417  5425     1 
 5418  5421     1 
 5418  5422     1 
 5418  5423     1 
 5419  5421     1 
 5419  5422     1 
 5419  5423     1 
 5420  5426     1 
 5420  5427     1 
 5421  5424     1 
 5421  5425     1 
 5422  5424     1 
 5422  5425     1 
 5423  5428     1 
 5423  5429     1 
 5423  5430     1 
 5424  5426     1 
 5424  5427     1 
 5425  5431     1 
 5425  5432     1 
 5425  5433     1 
 5426  5428     1 
 5426  5429     1 
 5426  5430     1 
 5427  5434     1 
 5427  5435     1 
 5427  5436     1 
 5428  5431     1 
 5428  5432     1 
 5428  5433     1 
 5429  5431     1 
 5429  5432     1 
 5429  5433     1 
 5430  5437     1 
 5430  5438     1 
 5430  5439     1 
 5431  5434     1 
 5431  5435     1 
 5431  5436     1 
 5432  5434     1 
 5432  5435     1 
 5432  5436     1 
 5433  5440     1 
 5433  5441     1 
 5433  5442     1 
 5434  5437     1 
 5434  5438     1 
 5434  5439     1 
 5435  5437     1 
 5435  5438     1 
 5435  5439     1 
 5436  5443     1 
 5436  5444     1 
 5436  5445     1 
 5437  5440     1 
 5437  5441     1 
 5437  5442     1 
 5438  5440     1 
 5438  5441     1 
 5438  5442     1 
 5439  5446     1 
 5439  5447     1 
 5439  5448     1 
 5440  5443     1 
 5440  5444     1 
 5440  5445     1 
 5441  5443     1 
 5441  5444     1 
 5441  5445     1 
 5442  5449     1 
 5442  5450     1 
 5442  5451     1 
 5443  5446     1 
 5443  5447     1 
 5443  5448     1 
 5444  5446     1 
 5444  5447     1 
 5444  5448     1 
 5446  5449     1 
 5446  5450     1 
 5446  5451     1 
 5447  5449     1 
 5447  5450     1 
 5447  5451     1 
 5452  5459     1 
 5452  5460     1 
 5452  5461     1 
 5453  5456     1 
 5453  5457     1 
 5453  5458     1 
 5454  5456     1 
 5454  5457     1 
 5454  5458     1 
 5455  5462     1 
 5455  5463     1 
 5455  5464     1 
 5456  5459     1 
 5456  5460     1 
 5456  5461     1 
 5457  5459     1 
 5457  5460     1 
 5457  5461     1 
 5458  5465     1 
 5458  5466     1 
 5458  5467     1 
 5459  5462     1 
 5459  5463     1 
 5459  5464     1 
 5460  5462     1 
 5460  5463     1 
 5460  5464     1 
 5461  5468     1 
 5461  5469     1 
 5461  5470     1 
 5462  5465     1 
 5462  5466     1 
 5462  5467     1 
 5463  5465     1 
 5463  5466     1 
 5463  5467     1 
 5464  5471     1 
 5464  5472     1 
 5464  5473     1 
 5465  5468     1 
 5465  5469     1 
 5465  5470     1 
 5466  5468     1 
 5466  5469     1 
 5466  5470     1 
 5467  5474     1 
 5467  5475     1 
 5467  5476     1 
 5468  5471     1 
 5468  5472     1 
 5468  5473     1 
 5469  5471     1 
 5469  5472     1 
 5469  5473     1 
 5470  5477     1 
 5470  5478     1 
 5470  5479     1 
 5471  5474     1 
 5471  5475     1 
 5471  5476     1 
 5472  5474     1 
 5472  5475     1 
 5472  5476     1 
 5473  5480     1 
 5473  5481     1 
 5473  5482     1 
 5474  5477     1 
 5474  5478     1 
 5474  5479     1 
 5475  5477     1 
 5475  5478     1 
 5475  5479     1 
 5476  5483     1 
 5476  5484     1 
 5476  5485     1 
 5477  5480     1 
 5477  5481     1 
 5477  5482     1 
 5478  5480     1 
 5478  5481     1 
 5478  5482     1 
 5479  5486     1 
 5479  5487     1 
 5479  5488     1 
 5480  5483     1 
 5480  5484     1 
 5480  5485     1 
 5481  5483     1 
 5481  5484     1 
 5481  5485     1 
 5482  5489     1 
 5482  5490     1 
 5482  5491     1 
 5483  5486     1 
 5483  5487     1 
 5483  5488     1 
 5484  5486     1 
 5484  5487     1 
 5484  5488     1 
 5485  5492     1 
 5485  5493     1 
 5485  5494     1 
 5486  5489     1 
 5486  5490     1 
 5486  5491     1 
 5487  5489     1 
 5487  5490     1 
 5487  5491     1 
 5489  5492     1 
 5489  5493     1 
 5489  5494     1 
 5490  5492     1 
 5490  5493     1 
 5490  5494     1 
 5495  5512     1 
 5495  5513     1 
 5495  5517     1 
 5496  5500     1 
 5496  5501     1 
 5496  5502     1 
 5496  5504     1 
 5496  5505     1 
 5496  5506     1 
 5496  5508     1 
 5496  5509     1 
 5496  5510     1 
 5496  5514     1 
 5497  5499     1 
 5497  5503     1 
 5497  5507     1 
 5497  5512     1 
 5497  5513     1 
 5497  5517     1 
 5498  5499     1 
 5498  5503     1 
 5498  5507     1 
 5498  5512     1 
 5498  5513     1 
 5498  5517     1 
 5499  5504     1 
 5499  5505     1 
 5499  5506     1 
 5499  5508     1 
 5499  5509     1 
 5499  5510     1 
 5499  5511     1 
 5500  5503     1 
 5500  5507     1 
 5501  5503     1 
 5501  5507     1 
 5502  5503     1 
 5502  5507     1 
 5503  5508     1 
 5503  5509     1 
 5503  5510     1 
 5503  5511     1 
 5504  5507     1 
 5505  5507     1 
 5506  5507     1 
 5507  5511     1 
 5511  5515     1 
 5511  5516     1 
 5511  5518     1 
 5512  5514     1 
 5513  5514     1 
 5514  5520     1 
 5514  5521     1 
 5514  5522     1 
 5515  5519     1 
 5516  5519     1 
 5517  5519     1 
 5518  5523     1 
 5518  5524     1 
 5518  5530     1 
 5519  5525     1 
 5519  5531     1 
 5519  5532     1 
 5519  5533     1 
 5520  5523     1 
 5520  5524     1 
 5520  5530     1 
 5521  5523     1 
 5521  5524     1 
 5521  5530     1 
 5522  5526     1 
 5522  5527     1 
 5522  5534     1 
 5523  5525     1 
 5523  5531     1 
 5523  5532     1 
 5523  5533     1 
 5524  5528     1 
 5524  5529     1 
 5524  5531     1 
 5524  5532     1 
 5524  5533     1 
 5524  5539     1 
 5525  5530     1 
 5525  5540     1 
 5525  5541     1 
 5525  5542     1 
 5526  5528     1 
 5526  5529     1 
 5526  5539     1 
 5527  5543     1 
 5527  5544     1 
 5527  5545     1 
 5528  5540     1 
 5528  5541     1 
 5528  5542     1 
 5529  5540     1 
 5529  5541     1 
 5529  5542     1 
 5530  5535     1 
 5530  5536     1 
 5531  5534     1 
 5532  5534     1 
 5533  5537     1 
 5533  5538     1 
 5533  5586     1 
 5534  5587     1 
 5534  5588     1 
 5534  5589     1 
 5535  5537     1 
 5535  5538     1 
 5535  5586     1 
 5536  5590     1 
 5536  5591     1 
 5536  5592     1 
 5537  5587     1 
 5537  5588     1 
 5537  5589     1 
 5538  5587     1 
 5538  5588     1 
 5538  5589     1 
 5539  5546     1 
 5539  5547     1 
 5539  5548     1 
 5540  5543     1 
 5540  5544     1 
 5540  5545     1 
 5541  5543     1 
 5541  5544     1 
 5541  5545     1 
 5542  5549     1 
 5542  5550     1 
 5542  5551     1 
 5543  5546     1 
 5543  5547     1 
 5543  5548     1 
 5544  5546     1 
 5544  5547     1 
 5544  5548     1 
 5545  5552     1 
 5545  5553     1 
 5545  5554     1 
 5546  5549     1 
 5546  5550     1 
 5546  5551     1 
 5547  5549     1 
 5547  5550     1 
 5547  5551     1 
 5548  5555     1 
 5548  5556     1 
 5548  5557     1 
 5549  5552     1 
 5549  5553     1 
 5549  5554     1 
 5550  5552     1 
 5550  5553     1 
 5550  5554     1 
 5551  5558     1 
 5551  5559     1 
 5552  5555     1 
 5552  5556     1 
 5552  5557     1 
 5553  5555     1 
 5553  5556     1 
 5553  5557     1 
 5554  5560     1 
 5554  5561     1 
 5555  5558     1 
 5555  5559     1 
 5556  5558     1 
 5556  5559     1 
 5557  5562     1 
 5557  5563     1 
 5557  5564     1 
 5558  5560     1 
 5558  5561     1 
 5559  5565     1 
 5559  5566     1 
 5559  5567     1 
 5560  5562     1 
 5560  5563     1 
 5560  5564     1 
 5561  5568     1 
 5561  5569     1 
 5561  5570     1 
 5562  5565     1 
 5562  5566     1 
 5562  5567     1 
 5563  5565     1 
 5563  5566     1 
 5563  5567     1 
 5564  5571     1 
 5564  5572     1 
 5564  5573     1 
 5565  5568     1 
 5565  5569     1 
 5565  5570     1 
 5566  5568     1 
 5566  5569     1 
 5566  5570     1 
 5567  5574     1 
 5567  5575     1 
 5567  5576     1 
 5568  5571     1 
 5568  5572     1 
 5568  5573     1 
 5569  5571     1 
 5569  5572     1 
 5569  5573     1 
 5570  5577     1 
 5570  5578     1 
 5570  5579     1 
 5571  5574     1 
 5571  5575     1 
 5571  5576     1 
 5572  5574     1 
 5572  5575     1 
 5572  5576     1 
 5573  5580     1 
 5573  5581     1 
 5573  5582     1 
 5574  5577     1 
 5574  5578     1 
 5574  5579     1 
 5575  5577     1 
 5575  5578     1 
 5575  5579     1 
 5576  5583     1 
 5576  5584     1 
 5576  5585     1 
 5577  5580     1 
 5577  5581     1 
 5577  5582     1 
 5578  5580     1 
 5578  5581     1 
 5578  5582     1 
 5580  5583     1 
 5580  5584     1 
 5580  5585     1 
 5581  5583     1 
 5581  5584     1 
 5581  5585     1 
 5586  5593     1 
 5586  5594     1 
 5586  5595     1 
 5587  5590     1 
 5587  5591     1 
 5587  5592     1 
 5588  5590     1 
 5588  5591     1 
 5588  5592     1 
 5589  5596     1 
 5589  5597     1 
 5589  5598     1 
 5590  5593     1 
 5590  5594     1 
 5590  5595     1 
 5591  5593     1 
 5591  5594     1 
 5591  5595     1 
 5592  5599     1 
 5592  5600     1 
 5592  5601     1 
 5593  5596     1 
 5593  5597     1 
 5593  5598     1 
 5594  5596     1 
 5594  5597     1 
 5594  5598     1 
 5595  5602     1 
 5595  5603     1 
 5595  5604     1 
 5596  5599     1 
 5596  5600     1 
 5596  5601     1 
 5597  5599     1 
 5597  5600     1 
 5597  5601     1 
 5598  5605     1 
 5598  5606     1 
 5598  5607     1 
 5599  5602     1 
 5599  5603     1 
 5599  5604     1 
 5600  5602     1 
 5600  5603     1 
 5600  5604     1 
 5601  5608     1 
 5601  5609     1 
 5601  5610     1 
 5602  5605     1 
 5602  5606     1 
 5602  5607     1 
 5603  5605     1 
 5603  5606     1 
 5603  5607     1 
 5604  5611     1 
 5604  5612     1 
 5604  5613     1 
 5605  5608     1 
 5605  5609     1 
 5605  5610     1 
 5606  5608     1 
 5606  5609     1 
 5606  5610     1 
 5607  5614     1 
 5607  5615     1 
 5607  5616     1 
 5608  5611     1 
 5608  5612     1 
 5608  5613     1 
 5609  5611     1 
 5609  5612     1 
 5609  5613     1 
 5610  5617     1 
 5610  5618     1 
 5610  5619     1 
 5611  5614     1 
 5611  5615     1 
 5611  5616     1 
 5612  5614     1 
 5612  5615     1 
 5612  5616     1 
 5613  5620     1 
 5613  5621     1 
 5613  5622     1 
 5614  5617     1 
 5614  5618     1 
 5614  5619     1 
 5615  5617     1 
 5615  5618     1 
 5615  5619     1 
 5616  5623     1 
 5616  5624     1 
 5616  5625     1 
 5617  5620     1 
 5617  5621     1 
 5617  5622     1 
 5618  5620     1 
 5618  5621     1 
 5618  5622     1 
 5619  5626     1 
 5619  5627     1 
 5619  5628     1 
 5620  5623     1 
 5620  5624     1 
 5620  5625     1 
 5621  5623     1 
 5621  5624     1 
 5621  5625     1 
 5623  5626     1 
 5623  5627     1 
 5623  5628     1 
 5624  5626     1 
 5624  5627     1 
 5624  5628     1 
 5629  5646     1 
 5629  5647     1 
 5629  5651     1 
 5630  5634     1 
 5630  5635     1 
 5630  5636     1 
 5630  5638     1 
 5630  5639     1 
 5630  5640     1 
 5630  5642     1 
 5630  5643     1 
 5630  5644     1 
 5630  5648     1 
 5631  5633     1 
 5631  5637     1 
 5631  5641     1 
 5631  5646     1 
 5631  5647     1 
 5631  5651     1 
 5632  5633     1 
 5632  5637     1 
 5632  5641     1 
 5632  5646     1 
 5632  5647     1 
 5632  5651     1 
 5633  5638     1 
 5633  5639     1 
 5633  5640     1 
 5633  5642     1 
 5633  5643     1 
 5633  5644     1 
 5633  5645     1 
 5634  5637     1 
 5634  5641     1 
 5635  5637     1 
 5635  5641     1 
 5636  5637     1 
 5636  5641     1 
 5637  5642     1 
 5637  5643     1 
 5637  5644     1 
 5637  5645     1 
 5638  5641     1 
 5639  5641     1 
 5640  5641     1 
 5641  5645     1 
 5645  5649     1 
 5645  5650     1 
 5645  5652     1 
 5646  5648     1 
 5647  5648     1 
 5648  5654     1 
 5648  5655     1 
 5648  5656     1 
 5649  5653     1 
 5650  5653     1 
 5651  5653     1 
 5652  5657     1 
 5652  5658     1 
 5652  5664     1 
 5653  5659     1 
 5653  5665     1 
 5653  5666     1 
 5653  5667     1 
 5654  5657     1 
 5654  5658     1 
 5654  5664     1 
 5655  5657     1 
 5655  5658     1 
 5655  5664     1 
 5656  5660     1 
 5656  5661     1 
 5656  5668     1 
 5657  5659     1 
 5657  5665     1 
 5657  5666     1 
 5657  5667     1 
 5658  5662     1 
 5658  5663     1 
 5658  5665     1 
 5658  5666     1 
 5658  5667     1 
 5658  5673     1 
 5659  5664     1 
 5659  5674     1 
 5659  5675     1 
 5659  5676     1 
 5660  5662     1 
 5660  5663     1 
 5660  5673     1 
 5661  5677     1 
 5661  5678     1 
 5661  5679     1 
 5662  5674     1 
 5662  5675     1 
 5662  5676     1 
 5663  5674     1 
 5663  5675     1 
 5663  5676     1 
 5664  5669     1 
 5664  5670     1 
 5665  5668     1 
 5666  5668     1 
 5667  5671     1 
 5667  5672     1 
 5667  5720     1 
 5668  5721     1 
 5668  5722     1 
 5668  5723     1 
 5669  5671     1 
 5669  5672     1 
 5669  5720     1 
 5670  5724     1 
 5670  5725     1 
 5670  5726     1 
 5671  5721     1 
 5671  5722     1 
 5671  5723     1 
 5672  5721     1 
 5672  5722     1 
 5672  5723     1 
 5673  5680     1 
 5673  5681     1 
 5673  5682     1 
 5674  5677     1 
 5674  5678     1 
 5674  5679     1 
 5675  5677     1 
 5675  5678     1 
 5675  5679     1 
 5676  5683     1 
 5676  5684     1 
 5676  5685     1 
 5677  5680     1 
 5677  5681     1 
 5677  5682     1 
 5678  5680     1 
 5678  5681     1 
 5678  5682     1 
 5679  5686     1 
 5679  5687     1 
 5679  5688     1 
 5680  5683     1 
 5680  5684     1 
 5680  5685     1 
 5681  5683     1 
 5681  5684     1 
 5681  5685     1 
 5682  5689     1 
 5682  5690     1 
 5682  5691     1 
 5683  5686     1 
 5683  5687     1 
 5683  5688     1 
 5684  5686     1 
 5684  5687     1 
 5684  5688     1 
 5685  5692     1 
 5685  5693     1 
 5686  5689     1 
 5686  5690     1 
 5686  5691     1 
 5687  5689     1 
 5687  5690     1 
 5687  5691     1 
 5688  5694     1 
 5688  5695     1 
 5689  5692     1 
 5689  5693     1 
 5690  5692     1 
 5690  5693     1 
 5691  5696     1 
 5691  5697     1 
 5691  5698     1 
 5692  5694     1 
 5692  5695     1 
 5693  5699     1 
 5693  5700     1 
 5693  5701     1 
 5694  5696     1 
 5694  5697     1 
 5694  5698     1 
 5695  5702     1 
 5695  5703     1 
 5695  5704     1 
 5696  5699     1 
 5696  5700     1 
 5696  5701     1 
 5697  5699     1 
 5697  5700     1 
 5697  5701     1 
 5698  5705     1 
 5698  5706     1 
 5698  5707     1 
 5699  5702     1 
 5699  5703     1 
 5699  5704     1 
 5700  5702     1 
 5700  5703     1 
 5700  5704     1 
 5701  5708     1 
 5701  5709     1 
 5701  5710     1 
 5702  5705     1 
 5702  5706     1 
 5702  5707     1 
 5703  5705     1 
 5703  5706     1 
 5703  5707     1 
 5704  5711     1 
 5704  5712     1 
 5704  5713     1 
 5705  5708     1 
 5705  5709     1 
 5705  5710     1 
 5706  5708     1 
 5706  5709     1 
 5706  5710     1 
 5707  5714     1 
 5707  5715     1 
 5707  5716     1 
 5708  5711     1 
 5708  5712     1 
 5708  5713     1 
 5709  5711     1 
 5709  5712     1 
 5709  5713     1 
 5710  5717     1 
 5710  5718     1 
 5710  5719     1 
 5711  5714     1 
 5711  5715     1 
 5711  5716     1 
 5712  5714     1 
 5712  5715     1 
 5712  5716     1 
 5714  5717     1 
 5714  5718     1 
 5714  5719     1 
 5715  5717     1 
 5715  5718     1 
 5715  5719     1 
 5720  5727     1 
 5720  5728     1 
 5720  5729     1 
 5721  5724     1 
 5721  5725     1 
 5721  5726     1 
 5722  5724     1 
 5722  5725     1 
 5722  5726     1 
 5723  5730     1 
 5723  5731     1 
 5723  5732     1 
 5724  5727     1 
 5724  5728     1 
 5724  5729     1 
 5725  5727     1 
 5725  5728     1 
 5725  5729     1 
 5726  5733     1 
 5726  5734     1 
 5726  5735     1 
 5727  5730     1 
 5727  5731     1 
 5727  5732     1 
 5728  5730     1 
 5728  5731     1 
 5728  5732     1 
 5729  5736     1 
 5729  5737     1 
 5729  5738     1 
 5730  5733     1 
 5730  5734     1 
 5730  5735     1 
 5731  5733     1 
 5731  5734     1 
 5731  5735     1 
 5732  5739     1 
 5732  5740     1 
 5732  5741     1 
 5733  5736     1 
 5733  5737     1 
 5733  5738     1 
 5734  5736     1 
 5734  5737     1 
 5734  5738     1 
 5735  5742     1 
 5735  5743     1 
 5735  5744     1 
 5736  5739     1 
 5736  5740     1 
 5736  5741     1 
 5737  5739     1 
 5737  5740     1 
 5737  5741     1 
 5738  5745     1 
 5738  5746     1 
 5738  5747     1 
 5739  5742     1 
 5739  5743     1 
 5739  5744     1 
 5740  5742     1 
 5740  5743     1 
 5740  5744     1 
 5741  5748     1 
 5741  5749     1 
 5741  5750     1 
 5742  5745     1 
 5742  5746     1 
 5742  5747     1 
 5743  5745     1 
 5743  5746     1 
 5743  5747     1 
 5744  5751     1 
 5744  5752     1 
 5744  5753     1 
 5745  5748     1 
 5745  5749     1 
 5745  5750     1 
 5746  5748     1 
 5746  5749     1 
 5746  5750     1 
 5747  5754     1 
 5747  5755     1 
 5747  5756     1 
 5748  5751     1 
 5748  5752     1 
 5748  5753     1 
 5749  5751     1 
 5749  5752     1 
 5749  5753     1 
 5750  5757     1 
 5750  5758     1 
 5750  5759     1 
 5751  5754     1 
 5751  5755     1 
 5751  5756     1 
 5752  5754     1 
 5752  5755     1 
 5752  5756     1 
 5753  5760     1 
 5753  5761     1 
 5753  5762     1 
 5754  5757     1 
 5754  5758     1 
 5754  5759     1 
 5755  5757     1 
 5755  5758     1 
 5755  5759     1 
 5757  5760     1 
 5757  5761     1 
 5757  5762     1 
 5758  5760     1 
 5758  5761     1 
 5758  5762     1 
 5763  5780     1 
 5763  5781     1 
 5763  5785     1 
 5764  5768     1 
 5764  5769     1 
 5764  5770     1 
 5764  5772     1 
 5764  5773     1 
 5764  5774     1 
 5764  5776     1 
 5764  5777     1 
 5764  5778     1 
 5764  5782     1 
 5765  5767     1 
 5765  5771     1 
 5765  5775     1 
 5765  5780     1 
 5765  5781     1 
 5765  5785     1 
 5766  5767     1 
 5766  5771     1 
 5766  5775     1 
 5766  5780     1 
 5766  5781     1 
 5766  5785     1 
 5767  5772     1 
 5767  5773     1 
 5767  5774     1 
 5767  5776     1 
 5767  5777     1 
 5767  5778     1 
 5767  5779     1 
 5768  5771     1 
 5768  5775     1 
 5769  5771     1 
 5769  5775     1 
 5770  5771     1 
 5770  5775     1 
 5771  5776     1 
 5771  5777     1 
 5771  5778     1 
 5771  5779     1 
 5772  5775     1 
 5773  5775     1 
 5774  5775     1 
 5775  5779     1 
 5779  5783     1 
 5779  5784     1 
 5779  5786     1 
 5780  5782     1 
 5781  5782     1 
 5782  5788     1 
 5782  5789     1 
 5782  5790     1 
 5783  5787     1 
 5784  5787     1 
 5785  5787     1 
 5786  5791     1 
 5786  5792     1 
 5786  5798     1 
 5787  5793     1 
 5787  5799     1 
 5787  5800     1 
 5787  5801     1 
 5788  5791     1 
 5788  5792     1 
 5788  5798     1 
 5789  5791     1 
 5789  5792     1 
 5789  5798     1 
 5790  5794     1 
 5790  5795     1 
 5790  5802     1 
 5791  5793     1 
 5791  5799     1 
 5791  5800     1 
 5791  5801     1 
 5792  5796     1 
 5792  5797     1 
 5792  5799     1 
 5792  5800     1 
 5792  5801     1 
 5792  5807     1 
 5793  5798     1 
 5793  5808     1 
 5793  5809     1 
 5793  5810     1 
 5794  5796     1 
 5794  5797     1 
 5794  5807     1 
 5795  5811     1 
 5795  5812     1 
 5795  5813     1 
 5796  5808     1 
 5796  5809     1 
 5796  5810     1 
 5797  5808     1 
 5797  5809     1 
 5797  5810     1 
 5798  5803     1 
 5798  5804     1 
 5799  5802     1 
 5800  5802     1 
 5801  5805     1 
 5801  5806     1 
 5801  5854     1 
 5802  5855     1 
 5802  5856     1 
 5802  5857     1 
 5803  5805     1 
 5803  5806     1 
 5803  5854     1 
 5804  5858     1 
 5804  5859     1 
 5804  5860     1 
 5805  5855     1 
 5805  5856     1 
 5805  5857     1 
 5806  5855     1 
 5806  5856     1 
 5806  5857     1 
 5807  5814     1 
 5807  5815     1 
 5807  5816     1 
 5808  5811     1 
 5808  5812     1 
 5808  5813     1 
 5809  5811     1 
 5809  5812     1 
 5809  5813     1 
 5810  5817     1 
 5810  5818     1 
 5810  5819     1 
 5811  5814     1 
 5811  5815     1 
 5811  5816     1 
 5812  5814     1 
 5812  5815     1 
 5812  5816     1 
 5813  5820     1 
 5813  5821     1 
 5813  5822     1 
 5814  5817     1 
 5814  5818     1 
 5814  5819     1 
 5815  5817     1 
 5815  5818     1 
 5815  5819     1 
 5816  5823     1 
 5816  5824     1 
 5816  5825     1 
 5817  5820     1 
 5817  5821     1 
 5817  5822     1 
 5818  5820     1 
 5818  5821     1 
 5818  5822     1 
 5819  5826     1 
 5819  5827     1 
 5820  5823     1 
 5820  5824     1 
 5820  5825     1 
 5821  5823     1 
 5821  5824     1 
 5821  5825     1 
 5822  5828     1 
 5822  5829     1 
 5823  5826     1 
 5823  5827     1 
 5824  5826     1 
 5824  5827     1 
 5825  5830     1 
 5825  5831     1 
 5825  5832     1 
 5826  5828     1 
 5826  5829     1 
 5827  5833     1 
 5827  5834     1 
 5827  5835     1 
 5828  5830     1 
 5828  5831     1 
 5828  5832     1 
 5829  5836     1 
 5829  5837     1 
 5829  5838     1 
 5830  5833     1 
 5830  5834     1 
 5830  5835     1 
 5831  5833     1 
 5831  5834     1 
 5831  5835     1 
 5832  5839     1 
 5832  5840     1 
 5832  5841     1 
 5833  5836     1 
 5833  5837     1 
 5833  5838     1 
 5834  5836     1 
 5834  5837     1 
 5834  5838     1 
 5835  5842     1 
 5835  5843     1 
 5835  5844     1 
 5836  5839     1 
 5836  5840     1 
 5836  5841     1 
 5837  5839     1 
 5837  5840     1 
 5837  5841     1 
 5838  5845     1 
 5838  5846     1 
 5838  5847     1 
 5839  5842     1 
 5839  5843     1 
 5839  5844     1 
 5840  5842     1 
 5840  5843     1 
 5840  5844     1 
 5841  5848     1 
 5841  5849     1 
 5841  5850     1 
 5842  5845     1 
 5842  5846     1 
 5842  5847     1 
 5843  5845     1 
 5843  5846     1 
 5843  5847     1 
 5844  5851     1 
 5844  5852     1 
 5844  5853     1 
 5845  5848     1 
 5845  5849     1 
 5845  5850     1 
 5846  5848     1 
 5846  5849     1 
 5846  5850     1 
 5848  5851     1 
 5848  5852     1 
 5848  5853     1 
 5849  5851     1 
 5849  5852     1 
 5849  5853     1 
 5854  5861     1 
 5854  5862     1 
 5854  5863     1 
 5855  5858     1 
 5855  5859     1 
 5855  5860     1 
 5856  5858     1 
 5856  5859     1 
 5856  5860     1 
 5857  5864     1 
 5857  5865     1 
 5857  5866     1 
 5858  5861     1 
 5858  5862     1 
 5858  5863     1 
 5859  5861     1 
 5859  5862     1 
 5859  5863     1 
 5860  5867     1 
 5860  5868     1 
 5860  5869     1 
 5861  5864     1 
 5861  5865     1 
 5861  5866     1 
 5862  5864     1 
 5862  5865     1 
 5862  5866     1 
 5863  5870     1 
 5863  5871     1 
 5863  5872     1 
 5864  5867     1 
 5864  5868     1 
 5864  5869     1 
 5865  5867     1 
 5865  5868     1 
 5865  5869     1 
 5866  5873     1 
 5866  5874     1 
 5866  5875     1 
 5867  5870     1 
 5867  5871     1 
 5867  5872     1 
 5868  5870     1 
 5868  5871     1 
 5868  5872     1 
 5869  5876     1 
 5869  5877     1 
 5869  5878     1 
 5870  5873     1 
 5870  5874     1 
 5870  5875     1 
 5871  5873     1 
 5871  5874     1 
 5871  5875     1 
 5872  5879     1 
 5872  5880     1 
 5872  5881     1 
 5873  5876     1 
 5873  5877     1 
 5873  5878     1 
 5874  5876     1 
 5874  5877     1 
 5874  5878     1 
 5875  5882     1 
 5875  5883     1 
 5875  5884     1 
 5876  5879     1 
 5876  5880     1 
 5876  5881     1 
 5877  5879     1 
 5877  5880     1 
 5877  5881     1 
 5878  5885     1 
 5878  5886     1 
 5878  5887     1 
 5879  5882     1 
 5879  5883     1 
 5879  5884     1 
 5880  5882     1 
 5880  5883     1 
 5880  5884     1 
 5881  5888     1 
 5881  5889     1 
 5881  5890     1 
 5882  5885     1 
 5882  5886     1 
 5882  5887     1 
 5883  5885     1 
 5883  5886     1 
 5883  5887     1 
 5884  5891     1 
 5884  5892     1 
 5884  5893     1 
 5885  5888     1 
 5885  5889     1 
 5885  5890     1 
 5886  5888     1 
 5886  5889     1 
 5886  5890     1 
 5887  5894     1 
 5887  5895     1 
 5887  5896     1 
 5888  5891     1 
 5888  5892     1 
 5888  5893     1 
 5889  5891     1 
 5889  5892     1 
 5889  5893     1 
 5891  5894     1 
 5891  5895     1 
 5891  5896     1 
 5892  5894     1 
 5892  5895     1 
 5892  5896     1 
 5897  5914     1 
 5897  5915     1 
 5897  5919     1 
 5898  5902     1 
 5898  5903     1 
 5898  5904     1 
 5898  5906     1 
 5898  5907     1 
 5898  5908     1 
 5898  5910     1 
 5898  5911     1 
 5898  5912     1 
 5898  5916     1 
 5899  5901     1 
 5899  5905     1 
 5899  5909     1 
 5899  5914     1 
 5899  5915     1 
 5899  5919     1 
 5900  5901     1 
 5900  5905     1 
 5900  5909     1 
 5900  5914     1 
 5900  5915     1 
 5900  5919     1 
 5901  5906     1 
 5901  5907     1 
 5901  5908     1 
 5901  5910     1 
 5901  5911     1 
 5901  5912     1 
 5901  5913     1 
 5902  5905     1 
 5902  5909     1 
 5903  5905     1 
 5903  5909     1 
 5904  5905     1 
 5904  5909     1 
 5905  5910     1 
 5905  5911     1 
 5905  5912     1 
 5905  5913     1 
 5906  5909     1 
 5907  5909     1 
 5908  5909     1 
 5909  5913     1 
 5913  5917     1 
 5913  5918     1 
 5913  5920     1 
 5914  5916     1 
 5915  5916     1 
 5916  5922     1 
 5916  5923     1 
 5916  5924     1 
 5917  5921     1 
 5918  5921     1 
 5919  5921     1 
 5920  5925     1 
 5920  5926     1 
 5920  5932     1 
 5921  5927     1 
 5921  5933     1 
 5921  5934     1 
 5921  5935     1 
 5922  5925     1 
 5922  5926     1 
 5922  5932     1 
 5923  5925     1 
 5923  5926     1 
 5923  5932     1 
 5924  5928     1 
 5924  5929     1 
 5924  5936     1 
 5925  5927     1 
 5925  5933     1 
 5925  5934     1 
 5925  5935     1 
 5926  5930     1 
 5926  5931     1 
 5926  5933     1 
 5926  5934     1 
 5926  5935     1 
 5926  5941     1 
 5927  5932     1 
 5927  5942     1 
 5927  5943     1 
 5927  5944     1 
 5928  5930     1 
 5928  5931     1 
 5928  5941     1 
 5929  5945     1 
 5929  5946     1 
 5929  5947     1 
 5930  5942     1 
 5930  5943     1 
 5930  5944     1 
 5931  5942     1 
 5931  5943     1 
 5931  5944     1 
 5932  5937     1 
 5932  5938     1 
 5933  5936     1 
 5934  5936     1 
 5935  5939     1 
 5935  5940     1 
 5935  5988     1 
 5936  5989     1 
 5936  5990     1 
 5936  5991     1 
 5937  5939     1 
 5937  5940     1 
 5937  5988     1 
 5938  5992     1 
 5938  5993     1 
 5938  5994     1 
 5939  5989     1 
 5939  5990     1 
 5939  5991     1 
 5940  5989     1 
 5940  5990     1 
 5940  5991     1 
 5941  5948     1 
 5941  5949     1 
 5941  5950     1 
 5942  5945     1 
 5942  5946     1 
 5942  5947     1 
 5943  5945     1 
 5943  5946     1 
 5943  5947     1 
 5944  5951     1 
 5944  5952     1 
 5944  5953     1 
 5945  5948     1 
 5945  5949     1 
 5945  5950     1 
 5946  5948     1 
 5946  5949     1 
 5946  5950     1 
 5947  5954     1 
 5947  5955     1 
 5947  5956     1 
 5948  5951     1 
 5948  5952     1 
 5948  5953     1 
 5949  5951     1 
 5949  5952     1 
 5949  5953     1 
 5950  5957     1 
 5950  5958     1 
 5950  5959     1 
 5951  5954     1 
 5951  5955     1 
 5951  5956     1 
 5952  5954     1 
 5952  5955     1 
 5952  5956     1 
 5953  5960     1 
 5953  5961     1 
 5954  5957     1 
 5954  5958     1 
 5954  5959     1 
 5955  5957     1 
 5955  5958     1 
 5955  5959     1 
 5956  5962     1 
 5956  5963     1 
 5957  5960     1 
 5957  5961     1 
 5958  5960     1 
 5958  5961     1 
 5959  5964     1 
 5959  5965     1 
 5959  5966     1 
 5960  5962     1 
 5960  5963     1 
 5961  5967     1 
 5961  5968     1 
 5961  5969     1 
 5962  5964     1 
 5962  5965     1 
 5962  5966     1 
 5963  5970     1 
 5963  5971     1 
 5963  5972     1 
 5964  5967     1 
 5964  5968     1 
 5964  5969     1 
 5965  5967     1 
 5965  5968     1 
 5965  5969     1 
 5966  5973     1 
 5966  5974     1 
 5966  5975     1 
 5967  5970     1 
 5967  5971     1 
 5967  5972     1 
 5968  5970     1 
 5968  5971     1 
 5968  5972     1 
 5969  5976     1 
 5969  5977     1 
 5969  5978     1 
 5970  5973     1 
 5970  5974     1 
 5970  5975     1 
 5971  5973     1 
 5971  5974     1 
 5971  5975     1 
 5972  5979     1 
 5972  5980     1 
 5972  5981     1 
 5973  5976     1 
 5973  5977     1 
 5973  5978     1 
 5974  5976     1 
 5974  5977     1 
 5974  5978     1 
 5975  5982     1 
 5975  5983     1 
 5975  5984     1 
 5976  5979     1 
 5976  5980     1 
 5976  5981     1 
 5977  5979     1 
 5977  5980     1 
 5977  5981     1 
 5978  5985     1 
 5978  5986     1 
 5978  5987     1 
 5979  5982     1 
 5979  5983     1 
 5979  5984     1 
 5980  5982     1 
 5980  5983     1 
 5980  5984     1 
 5982  5985     1 
 5982  5986     1 
 5982  5987     1 
 5983  5985     1 
 5983  5986     1 
 5983  5987     1 
 5988  5995     1 
 5988  5996     1 
 5988  5997     1 
 5989  5992     1 
 5989  5993     1 
 5989  5994     1 
 5990  5992     1 
 5990  5993     1 
 5990  5994     1 
 5991  5998     1 
 5991  5999     1 
 5991  6000     1 
 5992  5995     1 
 5992  5996     1 
 5992  5997     1 
 5993  5995     1 
 5993  5996     1 
 5993  5997     1 
 5994  6001     1 
 5994  6002     1 
 5994  6003     1 
 5995  5998     1 
 5995  5999     1 
 5995  6000     1 
 5996  5998     1 
 5996  5999     1 
 5996  6000     1 
 5997  6004     1 
 5997  6005     1 
 5997  6006     1 
 5998  6001     1 
 5998  6002     1 
 5998  6003     1 
 5999  6001     1 
 5999  6002     1 
 5999  6003     1 
 6000  6007     1 
 6000  6008     1 
 6000  6009     1 
 6001  6004     1 
 6001  6005     1 
 6001  6006     1 
 6002  6004     1 
 6002  6005     1 
 6002  6006     1 
 6003  6010     1 
 6003  6011     1 
 6003  6012     1 
 6004  6007     1 
 6004  6008     1 
 6004  6009     1 
 6005  6007     1 
 6005  6008     1 
 6005  6009     1 
 6006  6013     1 
 6006  6014     1 
 6006  6015     1 
 6007  6010     1 
 6007  6011     1 
 6007  6012     1 
 6008  6010     1 
 6008  6011     1 
 6008  6012     1 
 6009  6016     1 
 6009  6017     1 
 6009  6018     1 
 6010  6013     1 
 6010  6014     1 
 6010  6015     1 
 6011  6013     1 
 6011  6014     1 
 6011  6015     1 
 6012  6019     1 
 6012  6020     1 
 6012  6021     1 
 6013  6016     1 
 6013  6017     1 
 6013  6018     1 
 6014  6016     1 
 6014  6017     1 
 6014  6018     1 
 6015  6022     1 
 6015  6023     1 
 6015  6024     1 
 6016  6019     1 
 6016  6020     1 
 6016  6021     1 
 6017  6019     1 
 6017  6020     1 
 6017  6021     1 
 6018  6025     1 
 6018  6026     1 
 6018  6027     1 
 6019  6022     1 
 6019  6023     1 
 6019  6024     1 
 6020  6022     1 
 6020  6023     1 
 6020  6024     1 
 6021  6028     1 
 6021  6029     1 
 6021  6030     1 
 6022  6025     1 
 6022  6026     1 
 6022  6027     1 
 6023  6025     1 
 6023  6026     1 
 6023  6027     1 
 6025  6028     1 
 6025  6029     1 
 6025  6030     1 
 6026  6028     1 
 6026  6029     1 
 6026  6030     1 
 6031  6048     1 
 6031  6049     1 
 6031  6053     1 
 6032  6036     1 
 6032  6037     1 
 6032  6038     1 
 6032  6040     1 
 6032  6041     1 
 6032  6042     1 
 6032  6044     1 
 6032  6045     1 
 6032  6046     1 
 6032  6050     1 
 6033  6035     1 
 6033  6039     1 
 6033  6043     1 
 6033  6048     1 
 6033  6049     1 
 6033  6053     1 
 6034  6035     1 
 6034  6039     1 
 6034  6043     1 
 6034  6048     1 
 6034  6049     1 
 6034  6053     1 
 6035  6040     1 
 6035  6041     1 
 6035  6042     1 
 6035  6044     1 
 6035  6045     1 
 6035  6046     1 
 6035  6047     1 
 6036  6039     1 
 6036  6043     1 
 6037  6039     1 
 6037  6043     1 
 6038  6039     1 
 6038  6043     1 
 6039  6044     1 
 6039  6045     1 
 6039  6046     1 
 6039  6047     1 
 6040  6043     1 
 6041  6043     1 
 6042  6043     1 
 6043  6047     1 
 6047  6051     1 
 6047  6052     1 
 6047  6054     1 
 6048  6050     1 
 6049  6050     1 
 6050  6056     1 
 6050  6057     1 
 6050  6058     1 
 6051  6055     1 
 6052  6055     1 
 6053  6055     1 
 6054  6059     1 
 6054  6060     1 
 6054  6066     1 
 6055  6061     1 
 6055  6067     1 
 6055  6068     1 
 6055  6069     1 
 6056  6059     1 
 6056  6060     1 
 6056  6066     1 
 6057  6059     1 
 6057  6060     1 
 6057  6066     1 
 6058  6062     1 
 6058  6063     1 
 6058  6070     1 
 6059  6061     1 
 6059  6067     1 
 6059  6068     1 
 6059  6069     1 
 6060  6064     1 
 6060  6065     1 
 6060  6067     1 
 6060  6068     1 
 6060  6069     1 
 6060  6075     1 
 6061  6066     1 
 6061  6076     1 
 6061  6077     1 
 6061  6078     1 
 6062  6064     1 
 6062  6065     1 
 6062  6075     1 
 6063  6079     1 
 6063  6080     1 
 6063  6081     1 
 6064  6076     1 
 6064  6077     1 
 6064  6078     1 
 6065  6076     1 
 6065  6077     1 
 6065  6078     1 
 6066  6071     1 
 6066  6072     1 
 6067  6070     1 
 6068  6070     1 
 6069  6073     1 
 6069  6074     1 
 6069  6122     1 
 6070  6123     1 
 6070  6124     1 
 6070  6125     1 
 6071  6073     1 
 6071  6074     1 
 6071  6122     1 
 6072  6126     1 
 6072  6127     1 
 6072  6128     1 
 6073  6123     1 
 6073  6124     1 
 6073  6125     1 
 6074  6123     1 
 6074  6124     1 
 6074  6125     1 
 6075  6082     1 
 6075  6083     1 
 6075  6084     1 
 6076  6079     1 
 6076  6080     1 
 6076  6081     1 
 6077  6079     1 
 6077  6080     1 
 6077  6081     1 
 6078  6085     1 
 6078  6086     1 
 6078  6087     1 
 6079  6082     1 
 6079  6083     1 
 6079  6084     1 
 6080  6082     1 
 6080  6083     1 
 6080  6084     1 
 6081  6088     1 
 6081  6089     1 
 6081  6090     1 
 6082  6085     1 
 6082  6086     1 
 6082  6087     1 
 6083  6085     1 
 6083  6086     1 
 6083  6087     1 
 6084  6091     1 
 6084  6092     1 
 6084  6093     1 
 6085  6088     1 
 6085  6089     1 
 6085  6090     1 
 6086  6088     1 
 6086  6089     1 
 6086  6090     1 
 6087  6094     1 
 6087  6095     1 
 6088  6091     1 
 6088  6092     1 
 6088  6093     1 
 6089  6091     1 
 6089  6092     1 
 6089  6093     1 
 6090  6096     1 
 6090  6097     1 
 6091  6094     1 
 6091  6095     1 
 6092  6094     1 
 6092  6095     1 
 6093  6098     1 
 6093  6099     1 
 6093  6100     1 
 6094  6096     1 
 6094  6097     1 
 6095  6101     1 
 6095  6102     1 
 6095  6103     1 
 6096  6098     1 
 6096  6099     1 
 6096  6100     1 
 6097  6104     1 
 6097  6105     1 
 6097  6106     1 
 6098  6101     1 
 6098  6102     1 
 6098  6103     1 
 6099  6101     1 
 6099  6102     1 
 6099  6103     1 
 6100  6107     1 
 6100  6108     1 
 6100  6109     1 
 6101  6104     1 
 6101  6105     1 
 6101  6106     1 
 6102  6104     1 
 6102  6105     1 
 6102  6106     1 
 6103  6110     1 
 6103  6111     1 
 6103  6112     1 
 6104  6107     1 
 6104  6108     1 
 6104  6109     1 
 6105  6107     1 
 6105  6108     1 
 6105  6109     1 
 6106  6113     1 
 6106  6114     1 
 6106  6115     1 
 6107  6110     1 
 6107  6111     1 
 6107  6112     1 
 6108  6110     1 
 6108  6111     1 
 6108  6112     1 
 6109  6116     1 
 6109  6117     1 
 6109  6118     1 
 6110  6113     1 
 6110  6114     1 
 6110  6115     1 
 6111  6113     1 
 6111  6114     1 
 6111  6115     1 
 6112  6119     1 
 6112  6120     1 
 6112  6121     1 
 6113  6116     1 
 6113  6117     1 
 6113  6118     1 
 6114  6116     1 
 6114  6117     1 
 6114  6118     1 
 6116  6119     1 
 6116  6120     1 
 6116  6121     1 
 6117  6119     1 
 6117  6120     1 
 6117  6121     1 
 6122  6129     1 
 6122  6130     1 
 6122  6131     1 
 6123  6126     1 
 6123  6127     1 
 6123  6128     1 
 6124  6126     1 
 6124  6127     1 
 6124  6128     1 
 6125  6132     1 
 6125  6133     1 
 6125  6134     1 
 6126  6129     1 
 6126  6130     1 
 6126  6131     1 
 6127  6129     1 
 6127  6130     1 
 6127  6131     1 
 6128  6135     1 
 6128  6136     1 
 6128  6137     1 
 6129  6132     1 
 6129  6133     1 
 6129  6134     1 
 6130  6132     1 
 6130  6133     1 
 6130  6134     1 
 6131  6138     1 
 6131  6139     1 
 6131  6140     1 
 6132  6135     1 
 6132  6136     1 
 6132  6137     1 
 6133  6135     1 
 6133  6136     1 
 6133  6137     1 
 6134  6141     1 
 6134  6142     1 
 6134  6143     1 
 6135  6138     1 
 6135  6139     1 
 6135  6140     1 
 6136  6138     1 
 6136  6139     1 
 6136  6140     1 
 6137  6144     1 
 6137  6145     1 
 6137  6146     1 
 6138  6141     1 
 6138  6142     1 
 6138  6143     1 
 6139  6141     1 
 6139  6142     1 
 6139  6143     1 
 6140  6147     1 
 6140  6148     1 
 6140  6149     1 
 6141  6144     1 
 6141  6145     1 
 6141  6146     1 
 6142  6144     1 
 6142  6145     1 
 6142  6146     1 
 6143  6150     1 
 6143  6151     1 
 6143  6152     1 
 6144  6147     1 
 6144  6148     1 
 6144  6149     1 
 6145  6147     1 
 6145  6148     1 
 6145  6149     1 
 6146  6153     1 
 6146  6154     1 
 6146  6155     1 
 6147  6150     1 
 6147  6151     1 
 6147  6152     1 
 6148  6150     1 
 6148  6151     1 
 6148  6152     1 
 6149  6156     1 
 6149  6157     1 
 6149  6158     1 
 6150  6153     1 
 6150  6154     1 
 6150  6155     1 
 6151  6153     1 
 6151  6154     1 
 6151  6155     1 
 6152  6159     1 
 6152  6160     1 
 6152  6161     1 
 6153  6156     1 
 6153  6157     1 
 6153  6158     1 
 6154  6156     1 
 6154  6157     1 
 6154  6158     1 
 6155  6162     1 
 6155  6163     1 
 6155  6164     1 
 6156  6159     1 
 6156  6160     1 
 6156  6161     1 
 6157  6159     1 
 6157  6160     1 
 6157  6161     1 
 6159  6162     1 
 6159  6163     1 
 6159  6164     1 
 6160  6162     1 
 6160  6163     1 
 6160  6164     1 
 6165  6182     1 
 6165  6183     1 
 6165  6187     1 
 6166  6170     1 
 6166  6171     1 
 6166  6172     1 
 6166  6174     1 
 6166  6175     1 
 6166  6176     1 
 6166  6178     1 
 6166  6179     1 
 6166  6180     1 
 6166  6184     1 
 6167  6169     1 
 6167  6173     1 
 6167  6177     1 
 6167  6182     1 
 6167  6183     1 
 6167  6187     1 
 6168  6169     1 
 6168  6173     1 
 6168  6177     1 
 6168  6182     1 
 6168  6183     1 
 6168  6187     1 
 6169  6174     1 
 6169  6175     1 
 6169  6176     1 
 6169  6178     1 
 6169  6179     1 
 6169  6180     1 
 6169  6181     1 
 6170  6173     1 
 6170  6177     1 
 6171  6173     1 
 6171  6177     1 
 6172  6173     1 
 6172  6177     1 
 6173  6178     1 
 6173  6179     1 
 6173  6180     1 
 6173  6181     1 
 6174  6177     1 
 6175  6177     1 
 6176  6177     1 
 6177  6181     1 
 6181  6185     1 
 6181  6186     1 
 6181  6188     1 
 6182  6184     1 
 6183  6184     1 
 6184  6190     1 
 6184  6191     1 
 6184  6192     1 
 6185  6189     1 
 6186  6189     1 
 6187  6189     1 
 6188  6193     1 
 6188  6194     1 
 6188  6200     1 
 6189  6195     1 
 6189  6201     1 
 6189  6202     1 
 6189  6203     1 
 6190  6193     1 
 6190  6194     1 
 6190  6200     1 
 6191  6193     1 
 6191  6194     1 
 6191  6200     1 
 6192  6196     1 
 6192  6197     1 
 6192  6204     1 
 6193  6195     1 
 6193  6201     1 
 6193  6202     1 
 6193  6203     1 
 6194  6198     1 
 6194  6199     1 
 6194  6201     1 
 6194  6202     1 
 6194  6203     1 
 6194  6209     1 
 6195  6200     1 
 6195  6210     1 
 6195  6211     1 
 6195  6212     1 
 6196  6198     1 
 6196  6199     1 
 6196  6209     1 
 6197  6213     1 
 6197  6214     1 
 6197  6215     1 
 6198  6210     1 
 6198  6211     1 
 6198  6212     1 
 6199  6210     1 
 6199  6211     1 
 6199  6212     1 
 6200  6205     1 
 6200  6206     1 
 6201  6204     1 
 6202  6204     1 
 6203  6207     1 
 6203  6208     1 
 6203  6256     1 
 6204  6257     1 
 6204  6258     1 
 6204  6259     1 
 6205  6207     1 
 6205  6208     1 
 6205  6256     1 
 6206  6260     1 
 6206  6261     1 
 6206  6262     1 
 6207  6257     1 
 6207  6258     1 
 6207  6259     1 
 6208  6257     1 
 6208  6258     1 
 6208  6259     1 
 6209  6216     1 
 6209  6217     1 
 6209  6218     1 
 6210  6213     1 
 6210  6214     1 
 6210  6215     1 
 6211  6213     1 
 6211  6214     1 
 6211  6215     1 
 6212  6219     1 
 6212  6220     1 
 6212  6221     1 
 6213  6216     1 
 6213  6217     1 
 6213  6218     1 
 6214  6216     1 
 6214  6217     1 
 6214  6218     1 
 6215  6222     1 
 6215  6223     1 
 6215  6224     1 
 6216  6219     1 
 6216  6220     1 
 6216  6221     1 
 6217  6219     1 
 6217  6220     1 
 6217  6221     1 
 6218  6225     1 
 6218  6226     1 
 6218  6227     1 
 6219  6222     1 
 6219  6223     1 
 6219  6224     1 
 6220  6222     1 
 6220  6223     1 
 6220  6224     1 
 6221  6228     1 
 6221  6229     1 
 6222  6225     1 
 6222  6226     1 
 6222  6227     1 
 6223  6225     1 
 6223  6226     1 
 6223  6227     1 
 6224  6230     1 
 6224  6231     1 
 6225  6228     1 
 6225  6229     1 
 6226  6228     1 
 6226  6229     1 
 6227  6232     1 
 6227  6233     1 
 6227  6234     1 
 6228  6230     1 
 6228  6231     1 
 6229  6235     1 
 6229  6236     1 
 6229  6237     1 
 6230  6232     1 
 6230  6233     1 
 6230  6234     1 
 6231  6238     1 
 6231  6239     1 
 6231  6240     1 
 6232  6235     1 
 6232  6236     1 
 6232  6237     1 
 6233  6235     1 
 6233  6236     1 
 6233  6237     1 
 6234  6241     1 
 6234  6242     1 
 6234  6243     1 
 6235  6238     1 
 6235  6239     1 
 6235  6240     1 
 6236  6238     1 
 6236  6239     1 
 6236  6240     1 
 6237  6244     1 
 6237  6245     1 
 6237  6246     1 
 6238  6241     1 
 6238  6242     1 
 6238  6243     1 
 6239  6241     1 
 6239  6242     1 
 6239  6243     1 
 6240  6247     1 
 6240  6248     1 
 6240  6249     1 
 6241  6244     1 
 6241  6245     1 
 6241  6246     1 
 6242  6244     1 
 6242  6245     1 
 6242  6246     1 
 6243  6250     1 
 6243  6251     1 
 6243  6252     1 
 6244  6247     1 
 6244  6248     1 
 6244  6249     1 
 6245  6247     1 
 6245  6248     1 
 6245  6249     1 
 6246  6253     1 
 6246  6254     1 
 6246  6255     1 
 6247  6250     1 
 6247  6251     1 
 6247  6252     1 
 6248  6250     1 
 6248  6251     1 
 6248  6252     1 
 6250  6253     1 
 6250  6254     1 
 6250  6255     1 
 6251  6253     1 
 6251  6254     1 
 6251  6255     1 
 6256  6263     1 
 6256  6264     1 
 6256  6265     1 
 6257  6260     1 
 6257  6261     1 
 6257  6262     1 
 6258  6260     1 
 6258  6261     1 
 6258  6262     1 
 6259  6266     1 
 6259  6267     1 
 6259  6268     1 
 6260  6263     1 
 6260  6264     1 
 6260  6265     1 
 6261  6263     1 
 6261  6264     1 
 6261  6265     1 
 6262  6269     1 
 6262  6270     1 
 6262  6271     1 
 6263  6266     1 
 6263  6267     1 
 6263  6268     1 
 6264  6266     1 
 6264  6267     1 
 6264  6268     1 
 6265  6272     1 
 6265  6273     1 
 6265  6274     1 
 6266  6269     1 
 6266  6270     1 
 6266  6271     1 
 6267  6269     1 
 6267  6270     1 
 6267  6271     1 
 6268  6275     1 
 6268  6276     1 
 6268  6277     1 
 6269  6272     1 
 6269  6273     1 
 6269  6274     1 
 6270  6272     1 
 6270  6273     1 
 6270  6274     1 
 6271  6278     1 
 6271  6279     1 
 6271  6280     1 
 6272  6275     1 
 6272  6276     1 
 6272  6277     1 
 6273  6275     1 
 6273  6276     1 
 6273  6277     1 
 6274  6281     1 
 6274  6282     1 
 6274  6283     1 
 6275  6278     1 
 6275  6279     1 
 6275  6280     1 
 6276  6278     1 
 6276  6279     1 
 6276  6280     1 
 6277  6284     1 
 6277  6285     1 
 6277  6286     1 
 6278  6281     1 
 6278  6282     1 
 6278  6283     1 
 6279  6281     1 
 6279  6282     1 
 6279  6283     1 
 6280  6287     1 
 6280  6288     1 
 6280  6289     1 
 6281  6284     1 
 6281  6285     1 
 6281  6286     1 
 6282  6284     1 
 6282  6285     1 
 6282  6286     1 
 6283  6290     1 
 6283  6291     1 
 6283  6292     1 
 6284  6287     1 
 6284  6288     1 
 6284  6289     1 
 6285  6287     1 
 6285  6288     1 
 6285  6289     1 
 6286  6293     1 
 6286  6294     1 
 6286  6295     1 
 6287  6290     1 
 6287  6291     1 
 6287  6292     1 
 6288  6290     1 
 6288  6291     1 
 6288  6292     1 
 6289  6296     1 
 6289  6297     1 
 6289  6298     1 
 6290  6293     1 
 6290  6294     1 
 6290  6295     1 
 6291  6293     1 
 6291  6294     1 
 6291  6295     1 
 6293  6296     1 
 6293  6297     1 
 6293  6298     1 
 6294  6296     1 
 6294  6297     1 
 6294  6298     1 
 6299  6316     1 
 6299  6317     1 
 6299  6321     1 
 6300  6304     1 
 6300  6305     1 
 6300  6306     1 
 6300  6308     1 
 6300  6309     1 
 6300  6310     1 
 6300  6312     1 
 6300  6313     1 
 6300  6314     1 
 6300  6318     1 
 6301  6303     1 
 6301  6307     1 
 6301  6311     1 
 6301  6316     1 
 6301  6317     1 
 6301  6321     1 
 6302  6303     1 
 6302  6307     1 
 6302  6311     1 
 6302  6316     1 
 6302  6317     1 
 6302  6321     1 
 6303  6308     1 
 6303  6309     1 
 6303  6310     1 
 6303  6312     1 
 6303  6313     1 
 6303  6314     1 
 6303  6315     1 
 6304  6307     1 
 6304  6311     1 
 6305  6307     1 
 6305  6311     1 
 6306  6307     1 
 6306  6311     1 
 6307  6312     1 
 6307  6313     1 
 6307  6314     1 
 6307  6315     1 
 6308  6311     1 
 6309  6311     1 
 6310  6311     1 
 6311  6315     1 
 6315  6319     1 
 6315  6320     1 
 6315  6322     1 
 6316  6318     1 
 6317  6318     1 
 6318  6324     1 
 6318  6325     1 
 6318  6326     1 
 6319  6323     1 
 6320  6323     1 
 6321  6323     1 
 6322  6327     1 
 6322  6328     1 
 6322  6334     1 
 6323  6329     1 
 6323  6335     1 
 6323  6336     1 
 6323  6337     1 
 6324  6327     1 
 6324  6328     1 
 6324  6334     1 
 6325  6327     1 
 6325  6328     1 
 6325  6334     1 
 6326  6330     1 
 6326  6331     1 
 6326  6338     1 
 6327  6329     1 
 6327  6335     1 
 6327  6336     1 
 6327  6337     1 
 6328  6332     1 
 6328  6333     1 
 6328  6335     1 
 6328  6336     1 
 6328  6337     1 
 6328  6343     1 
 6329  6334     1 
 6329  6344     1 
 6329  6345     1 
 6329  6346     1 
 6330  6332     1 
 6330  6333     1 
 6330  6343     1 
 6331  6347     1 
 6331  6348     1 
 6331  6349     1 
 6332  6344     1 
 6332  6345     1 
 6332  6346     1 
 6333  6344     1 
 6333  6345     1 
 6333  6346     1 
 6334  6339     1 
 6334  6340     1 
 6335  6338     1 
 6336  6338     1 
 6337  6341     1 
 6337  6342     1 
 6337  6390     1 
 6338  6391     1 
 6338  6392     1 
 6338  6393     1 
 6339  6341     1 
 6339  6342     1 
 6339  6390     1 
 6340  6394     1 
 6340  6395     1 
 6340  6396     1 
 6341  6391     1 
 6341  6392     1 
 6341  6393     1 
 6342  6391     1 
 6342  6392     1 
 6342  6393     1 
 6343  6350     1 
 6343  6351     1 
 6343  6352     1 
 6344  6347     1 
 6344  6348     1 
 6344  6349     1 
 6345  6347     1 
 6345  6348     1 
 6345  6349     1 
 6346  6353     1 
 6346  6354     1 
 6346  6355     1 
 6347  6350     1 
 6347  6351     1 
 6347  6352     1 
 6348  6350     1 
 6348  6351     1 
 6348  6352     1 
 6349  6356     1 
 6349  6357     1 
 6349  6358     1 
 6350  6353     1 
 6350  6354     1 
 6350  6355     1 
 6351  6353     1 
 6351  6354     1 
 6351  6355     1 
 6352  6359     1 
 6352  6360     1 
 6352  6361     1 
 6353  6356     1 
 6353  6357     1 
 6353  6358     1 
 6354  6356     1 
 6354  6357     1 
 6354  6358     1 
 6355  6362     1 
 6355  6363     1 
 6356  6359     1 
 6356  6360     1 
 6356  6361     1 
 6357  6359     1 
 6357  6360     1 
 6357  6361     1 
 6358  6364     1 
 6358  6365     1 
 6359  6362     1 
 6359  6363     1 
 6360  6362     1 
 6360  6363     1 
 6361  6366     1 
 6361  6367     1 
 6361  6368     1 
 6362  6364     1 
 6362  6365     1 
 6363  6369     1 
 6363  6370     1 
 6363  6371     1 
 6364  6366     1 
 6364  6367     1 
 6364  6368     1 
 6365  6372     1 
 6365  6373     1 
 6365  6374     1 
 6366  6369     1 
 6366  6370     1 
 6366  6371     1 
 6367  6369     1 
 6367  6370     1 
 6367  6371     1 
 6368  6375     1 
 6368  6376     1 
 6368  6377     1 
 6369  6372     1 
 6369  6373     1 
 6369  6374     1 
 6370  6372     1 
 6370  6373     1 
 6370  6374     1 
 6371  6378     1 
 6371  6379     1 
 6371  6380     1 
 6372  6375     1 
 6372  6376     1 
 6372  6377     1 
 6373  6375     1 
 6373  6376     1 
 6373  6377     1 
 6374  6381     1 
 6374  6382     1 
 6374  6383     1 
 6375  6378     1 
 6375  6379     1 
 6375  6380     1 
 6376  6378     1 
 6376  6379     1 
 6376  6380     1 
 6377  6384     1 
 6377  6385     1 
 6377  6386     1 
 6378  6381     1 
 6378  6382     1 
 6378  6383     1 
 6379  6381     1 
 6379  6382     1 
 6379  6383     1 
 6380  6387     1 
 6380  6388     1 
 6380  6389     1 
 6381  6384     1 
 6381  6385     1 
 6381  6386     1 
 6382  6384     1 
 6382  6385     1 
 6382  6386     1 
 6384  6387     1 
 6384  6388     1 
 6384  6389     1 
 6385  6387     1 
 6385  6388     1 
 6385  6389     1 
 6390  6397     1 
 6390  6398     1 
 6390  6399     1 
 6391  6394     1 
 6391  6395     1 
 6391  6396     1 
 6392  6394     1 
 6392  6395     1 
 6392  6396     1 
 6393  6400     1 
 6393  6401     1 
 6393  6402     1 
 6394  6397     1 
 6394  6398     1 
 6394  6399     1 
 6395  6397     1 
 6395  6398     1 
 6395  6399     1 
 6396  6403     1 
 6396  6404     1 
 6396  6405     1 
 6397  6400     1 
 6397  6401     1 
 6397  6402     1 
 6398  6400     1 
 6398  6401     1 
 6398  6402     1 
 6399  6406     1 
 6399  6407     1 
 6399  6408     1 
 6400  6403     1 
 6400  6404     1 
 6400  6405     1 
 6401  6403     1 
 6401  6404     1 
 6401  6405     1 
 6402  6409     1 
 6402  6410     1 
 6402  6411     1 
 6403  6406     1 
 6403  6407     1 
 6403  6408     1 
 6404  6406     1 
 6404  6407     1 
 6404  6408     1 
 6405  6412     1 
 6405  6413     1 
 6405  6414     1 
 6406  6409     1 
 6406  6410     1 
 6406  6411     1 
 6407  6409     1 
 6407  6410     1 
 6407  6411     1 
 6408  6415     1 
 6408  6416     1 
 6408  6417     1 
 6409  6412     1 
 6409  6413     1 
 6409  6414     1 
 6410  6412     1 
 6410  6413     1 
 6410  6414     1 
 6411  6418     1 
 6411  6419     1 
 6411  6420     1 
 6412  6415     1 
 6412  6416     1 
 6412  6417     1 
 6413  6415     1 
 6413  6416     1 
 6413  6417     1 
 6414  6421     1 
 6414  6422     1 
 6414  6423     1 
 6415  6418     1 
 6415  6419     1 
 6415  6420     1 
 6416  6418     1 
 6416  6419     1 
 6416  6420     1 
 6417  6424     1 
 6417  6425     1 
 6417  6426     1 
 6418  6421     1 
 6418  6422     1 
 6418  6423     1 
 6419  6421     1 
 6419  6422     1 
 6419  6423     1 
 6420  6427     1 
 6420  6428     1 
 6420  6429     1 
 6421  6424     1 
 6421  6425     1 
 6421  6426     1 
 6422  6424     1 
 6422  6425     1 
 6422  6426     1 
 6423  6430     1 
 6423  6431     1 
 6423  6432     1 
 6424  6427     1 
 6424  6428     1 
 6424  6429     1 
 6425  6427     1 
 6425  6428     1 
 6425  6429     1 
 6427  6430     1 
 6427  6431     1 
 6427  6432     1 
 6428  6430     1 
 6428  6431     1 
 6428  6432     1 
 6433  6450     1 
 6433  6451     1 
 6433  6455     1 
 6434  6438     1 
 6434  6439     1 
 6434  6440     1 
 6434  6442     1 
 6434  6443     1 
 6434  6444     1 
 6434  6446     1 
 6434  6447     1 
 6434  6448     1 
 6434  6452     1 
 6435  6437     1 
 6435  6441     1 
 6435  6445     1 
 6435  6450     1 
 6435  6451     1 
 6435  6455     1 
 6436  6437     1 
 6436  6441     1 
 6436  6445     1 
 6436  6450     1 
 6436  6451     1 
 6436  6455     1 
 6437  6442     1 
 6437  6443     1 
 6437  6444     1 
 6437  6446     1 
 6437  6447     1 
 6437  6448     1 
 6437  6449     1 
 6438  6441     1 
 6438  6445     1 
 6439  6441     1 
 6439  6445     1 
 6440  6441     1 
 6440  6445     1 
 6441  6446     1 
 6441  6447     1 
 6441  6448     1 
 6441  6449     1 
 6442  6445     1 
 6443  6445     1 
 6444  6445     1 
 6445  6449     1 
 6449  6453     1 
 6449  6454     1 
 6449  6456     1 
 6450  6452     1 
 6451  6452     1 
 6452  6458     1 
 6452  6459     1 
 6452  6460     1 
 6453  6457     1 
 6454  6457     1 
 6455  6457     1 
 6456  6461     1 
 6456  6462     1 
 6456  6468     1 
 6457  6463     1 
 6457  6469     1 
 6457  6470     1 
 6457  6471     1 
 6458  6461     1 
 6458  6462     1 
 6458  6468     1 
 6459  6461     1 
 6459  6462     1 
 6459  6468     1 
 6460  6464     1 
 6460  6465     1 
 6460  6472     1 
 6461  6463     1 
 6461  6469     1 
 6461  6470     1 
 6461  6471     1 
 6462  6466     1 
 6462  6467     1 
 6462  6469     1 
 6462  6470     1 
 6462  6471     1 
 6462  6477     1 
 6463  6468     1 
 6463  6478     1 
 6463  6479     1 
 6463  6480     1 
 6464  6466     1 
 6464  6467     1 
 6464  6477     1 
 6465  6481     1 
 6465  6482     1 
 6465  6483     1 
 6466  6478     1 
 6466  6479     1 
 6466  6480     1 
 6467  6478     1 
 6467  6479     1 
 6467  6480     1 
 6468  6473     1 
 6468  6474     1 
 6469  6472     1 
 6470  6472     1 
 6471  6475     1 
 6471  6476     1 
 6471  6524     1 
 6472  6525     1 
 6472  6526     1 
 6472  6527     1 
 6473  6475     1 
 6473  6476     1 
 6473  6524     1 
 6474  6528     1 
 6474  6529     1 
 6474  6530     1 
 6475  6525     1 
 6475  6526     1 
 6475  6527     1 
 6476  6525     1 
 6476  6526     1 
 6476  6527     1 
 6477  6484     1 
 6477  6485     1 
 6477  6486     1 
 6478  6481     1 
 6478  6482     1 
 6478  6483     1 
 6479  6481     1 
 6479  6482     1 
 6479  6483     1 
 6480  6487     1 
 6480  6488     1 
 6480  6489     1 
 6481  6484     1 
 6481  6485     1 
 6481  6486     1 
 6482  6484     1 
 6482  6485     1 
 6482  6486     1 
 6483  6490     1 
 6483  6491     1 
 6483  6492     1 
 6484  6487     1 
 6484  6488     1 
 6484  6489     1 
 6485  6487     1 
 6485  6488     1 
 6485  6489     1 
 6486  6493     1 
 6486  6494     1 
 6486  6495     1 
 6487  6490     1 
 6487  6491     1 
 6487  6492     1 
 6488  6490     1 
 6488  6491     1 
 6488  6492     1 
 6489  6496     1 
 6489  6497     1 
 6490  6493     1 
 6490  6494     1 
 6490  6495     1 
 6491  6493     1 
 6491  6494     1 
 6491  6495     1 
 6492  6498     1 
 6492  6499     1 
 6493  6496     1 
 6493  6497     1 
 6494  6496     1 
 6494  6497     1 
 6495  6500     1 
 6495  6501     1 
 6495  6502     1 
 6496  6498     1 
 6496  6499     1 
 6497  6503     1 
 6497  6504     1 
 6497  6505     1 
 6498  6500     1 
 6498  6501     1 
 6498  6502     1 
 6499  6506     1 
 6499  6507     1 
 6499  6508     1 
 6500  6503     1 
 6500  6504     1 
 6500  6505     1 
 6501  6503     1 
 6501  6504     1 
 6501  6505     1 
 6502  6509     1 
 6502  6510     1 
 6502  6511     1 
 6503  6506     1 
 6503  6507     1 
 6503  6508     1 
 6504  6506     1 
 6504  6507     1 
 6504  6508     1 
 6505  6512     1 
 6505  6513     1 
 6505  6514     1 
 6506  6509     1 
 6506  6510     1 
 6506  6511     1 
 6507  6509     1 
 6507  6510     1 
 6507  6511     1 
 6508  6515     1 
 6508  6516     1 
 6508  6517     1 
 6509  6512     1 
 6509  6513     1 
 6509  6514     1 
 6510  6512     1 
 6510  6513     1 
 6510  6514     1 
 6511  6518     1 
 6511  6519     1 
 6511  6520     1 
 6512  6515     1 
 6512  6516     1 
 6512  6517     1 
 6513  6515     1 
 6513  6516     1 
 6513  6517     1 
 6514  6521     1 
 6514  6522     1 
 6514  6523     1 
 6515  6518     1 
 6515  6519     1 
 6515  6520     1 
 6516  6518     1 
 6516  6519     1 
 6516  6520     1 
 6518  6521     1 
 6518  6522     1 
 6518  6523     1 
 6519  6521     1 
 6519  6522     1 
 6519  6523     1 
 6524  6531     1 
 6524  6532     1 
 6524  6533     1 
 6525  6528     1 
 6525  6529     1 
 6525  6530     1 
 6526  6528     1 
 6526  6529     1 
 6526  6530     1 
 6527  6534     1 
 6527  6535     1 
 6527  6536     1 
 6528  6531     1 
 6528  6532     1 
 6528  6533     1 
 6529  6531     1 
 6529  6532     1 
 6529  6533     1 
 6530  6537     1 
 6530  6538     1 
 6530  6539     1 
 6531  6534     1 
 6531  6535     1 
 6531  6536     1 
 6532  6534     1 
 6532  6535     1 
 6532  6536     1 
 6533  6540     1 
 6533  6541     1 
 6533  6542     1 
 6534  6537     1 
 6534  6538     1 
 6534  6539     1 
 6535  6537     1 
 6535  6538     1 
 6535  6539     1 
 6536  6543     1 
 6536  6544     1 
 6536  6545     1 
 6537  6540     1 
 6537  6541     1 
 6537  6542     1 
 6538  6540     1 
 6538  6541     1 
 6538  6542     1 
 6539  6546     1 
 6539  6547     1 
 6539  6548     1 
 6540  6543     1 
 6540  6544     1 
 6540  6545     1 
 6541  6543     1 
 6541  6544     1 
 6541  6545     1 
 6542  6549     1 
 6542  6550     1 
 6542  6551     1 
 6543  6546     1 
 6543  6547     1 
 6543  6548     1 
 6544  6546     1 
 6544  6547     1 
 6544  6548     1 
 6545  6552     1 
 6545  6553     1 
 6545  6554     1 
 6546  6549     1 
 6546  6550     1 
 6546  6551     1 
 6547  6549     1 
 6547  6550     1 
 6547  6551     1 
 6548  6555     1 
 6548  6556     1 
 6548  6557     1 
 6549  6552     1 
 6549  6553     1 
 6549  6554     1 
 6550  6552     1 
 6550  6553     1 
 6550  6554     1 
 6551  6558     1 
 6551  6559     1 
 6551  6560     1 
 6552  6555     1 
 6552  6556     1 
 6552  6557     1 
 6553  6555     1 
 6553  6556     1 
 6553  6557     1 
 6554  6561     1 
 6554  6562     1 
 6554  6563     1 
 6555  6558     1 
 6555  6559     1 
 6555  6560     1 
 6556  6558     1 
 6556  6559     1 
 6556  6560     1 
 6557  6564     1 
 6557  6565     1 
 6557  6566     1 
 6558  6561     1 
 6558  6562     1 
 6558  6563     1 
 6559  6561     1 
 6559  6562     1 
 6559  6563     1 
 6561  6564     1 
 6561  6565     1 
 6561  6566     1 
 6562  6564     1 
 6562  6565     1 
 6562  6566     1 
 6567  6584     1 
 6567  6585     1 
 6567  6589     1 
 6568  6572     1 
 6568  6573     1 
 6568  6574     1 
 6568  6576     1 
 6568  6577     1 
 6568  6578     1 
 6568  6580     1 
 6568  6581     1 
 6568  6582     1 
 6568  6586     1 
 6569  6571     1 
 6569  6575     1 
 6569  6579     1 
 6569  6584     1 
 6569  6585     1 
 6569  6589     1 
 6570  6571     1 
 6570  6575     1 
 6570  6579     1 
 6570  6584     1 
 6570  6585     1 
 6570  6589     1 
 6571  6576     1 
 6571  6577     1 
 6571  6578     1 
 6571  6580     1 
 6571  6581     1 
 6571  6582     1 
 6571  6583     1 
 6572  6575     1 
 6572  6579     1 
 6573  6575     1 
 6573  6579     1 
 6574  6575     1 
 6574  6579     1 
 6575  6580     1 
 6575  6581     1 
 6575  6582     1 
 6575  6583     1 
 6576  6579     1 
 6577  6579     1 
 6578  6579     1 
 6579  6583     1 
 6583  6587     1 
 6583  6588     1 
 6583  6590     1 
 6584  6586     1 
 6585  6586     1 
 6586  6592     1 
 6586  6593     1 
 6586  6594     1 
 6587  6591     1 
 6588  6591     1 
 6589  6591     1 
 6590  6595     1 
 6590  6596     1 
 6590  6602     1 
 6591  6597     1 
 6591  6603     1 
 6591  6604     1 
 6591  6605     1 
 6592  6595     1 
 6592  6596     1 
 6592  6602     1 
 6593  6595     1 
 6593  6596     1 
 6593  6602     1 
 6594  6598     1 
 6594  6599     1 
 6594  6606     1 
 6595  6597     1 
 6595  6603     1 
 6595  6604     1 
 6595  6605     1 
 6596  6600     1 
 6596  6601     1 
 6596  6603     1 
 6596  6604     1 
 6596  6605     1 
 6596  6611     1 
 6597  6602     1 
 6597  6612     1 
 6597  6613     1 
 6597  6614     1 
 6598  6600     1 
 6598  6601     1 
 6598  6611     1 
 6599  6615     1 
 6599  6616     1 
 6599  6617     1 
 6600  6612     1 
 6600  6613     1 
 6600  6614     1 
 6601  6612     1 
 6601  6613     1 
 6601  6614     1 
 6602  6607     1 
 6602  6608     1 
 6603  6606     1 
 6604  6606     1 
 6605  6609     1 
 6605  6610     1 
 6605  6658     1 
 6606  6659     1 
 6606  6660     1 
 6606  6661     1 
 6607  6609     1 
 6607  6610     1 
 6607  6658     1 
 6608  6662     1 
 6608  6663     1 
 6608  6664     1 
 6609  6659     1 
 6609  6660     1 
 6609  6661     1 
 6610  6659     1 
 6610  6660     1 
 6610  6661     1 
 6611  6618     1 
 6611  6619     1 
 6611  6620     1 
 6612  6615     1 
 6612  6616     1 
 6612  6617     1 
 6613  6615     1 
 6613  6616     1 
 6613  6617     1 
 6614  6621     1 
 6614  6622     1 
 6614  6623     1 
 6615  6618     1 
 6615  6619     1 
 6615  6620     1 
 6616  6618     1 
 6616  6619     1 
 6616  6620     1 
 6617  6624     1 
 6617  6625     1 
 6617  6626     1 
 6618  6621     1 
 6618  6622     1 
 6618  6623     1 
 6619  6621     1 
 6619  6622     1 
 6619  6623     1 
 6620  6627     1 
 6620  6628     1 
 6620  6629     1 
 6621  6624     1 
 6621  6625     1 
 6621  6626     1 
 6622  6624     1 
 6622  6625     1 
 6622  6626     1 
 6623  6630     1 
 6623  6631     1 
 6624  6627     1 
 6624  6628     1 
 6624  6629     1 
 6625  6627     1 
 6625  6628     1 
 6625  6629     1 
 6626  6632     1 
 6626  6633     1 
 6627  6630     1 
 6627  6631     1 
 6628  6630     1 
 6628  6631     1 
 6629  6634     1 
 6629  6635     1 
 6629  6636     1 
 6630  6632     1 
 6630  6633     1 
 6631  6637     1 
 6631  6638     1 
 6631  6639     1 
 6632  6634     1 
 6632  6635     1 
 6632  6636     1 
 6633  6640     1 
 6633  6641     1 
 6633  6642     1 
 6634  6637     1 
 6634  6638     1 
 6634  6639     1 
 6635  6637     1 
 6635  6638     1 
 6635  6639     1 
 6636  6643     1 
 6636  6644     1 
 6636  6645     1 
 6637  6640     1 
 6637  6641     1 
 6637  6642     1 
 6638  6640     1 
 6638  6641     1 
 6638  6642     1 
 6639  6646     1 
 6639  6647     1 
 6639  6648     1 
 6640  6643     1 
 6640  6644     1 
 6640  6645     1 
 6641  6643     1 
 6641  6644     1 
 6641  6645     1 
 6642  6649     1 
 6642  6650     1 
 6642  6651     1 
 6643  6646     1 
 6643  6647     1 
 6643  6648     1 
 6644  6646     1 
 6644  6647     1 
 6644  6648     1 
 6645  6652     1 
 6645  6653     1 
 6645  6654     1 
 6646  6649     1 
 6646  6650     1 
 6646  6651     1 
 6647  6649     1 
 6647  6650     1 
 6647  6651     1 
 6648  6655     1 
 6648  6656     1 
 6648  6657     1 
 6649  6652     1 
 6649  6653     1 
 6649  6654     1 
 6650  6652     1 
 6650  6653     1 
 6650  6654     1 
 6652  6655     1 
 6652  6656     1 
 6652  6657     1 
 6653  6655     1 
 6653  6656     1 
 6653  6657     1 
 6658  6665     1 
 6658  6666     1 
 6658  6667     1 
 6659  6662     1 
 6659  6663     1 
 6659  6664     1 
 6660  6662     1 
 6660  6663     1 
 6660  6664     1 
 6661  6668     1 
 6661  6669     1 
 6661  6670     1 
 6662  6665     1 
 6662  6666     1 
 6662  6667     1 
 6663  6665     1 
 6663  6666     1 
 6663  6667     1 
 6664  6671     1 
 6664  6672     1 
 6664  6673     1 
 6665  6668     1 
 6665  6669     1 
 6665  6670     1 
 6666  6668     1 
 6666  6669     1 
 6666  6670     1 
 6667  6674     1 
 6667  6675     1 
 6667  6676     1 
 6668  6671     1 
 6668  6672     1 
 6668  6673     1 
 6669  6671     1 
 6669  6672     1 
 6669  6673     1 
 6670  6677     1 
 6670  6678     1 
 6670  6679     1 
 6671  6674     1 
 6671  6675     1 
 6671  6676     1 
 6672  6674     1 
 6672  6675     1 
 6672  6676     1 
 6673  6680     1 
 6673  6681     1 
 6673  6682     1 
 6674  6677     1 
 6674  6678     1 
 6674  6679     1 
 6675  6677     1 
 6675  6678     1 
 6675  6679     1 
 6676  6683     1 
 6676  6684     1 
 6676  6685     1 
 6677  6680     1 
 6677  6681     1 
 6677  6682     1 
 6678  6680     1 
 6678  6681     1 
 6678  6682     1 
 6679  6686     1 
 6679  6687     1 
 6679  6688     1 
 6680  6683     1 
 6680  6684     1 
 6680  6685     1 
 6681  6683     1 
 6681  6684     1 
 6681  6685     1 
 6682  6689     1 
 6682  6690     1 
 6682  6691     1 
 6683  6686     1 
 6683  6687     1 
 6683  6688     1 
 6684  6686     1 
 6684  6687     1 
 6684  6688     1 
 6685  6692     1 
 6685  6693     1 
 6685  6694     1 
 6686  6689     1 
 6686  6690     1 
 6686  6691     1 
 6687  6689     1 
 6687  6690     1 
 6687  6691     1 
 6688  6695     1 
 6688  6696     1 
 6688  6697     1 
 6689  6692     1 
 6689  6693     1 
 6689  6694     1 
 6690  6692     1 
 6690  6693     1 
 6690  6694     1 
 6691  6698     1 
 6691  6699     1 
 6691  6700     1 
 6692  6695     1 
 6692  6696     1 
 6692  6697     1 
 6693  6695     1 
 6693  6696     1 
 6693  6697     1 
 6695  6698     1 
 6695  6699     1 
 6695  6700     1 
 6696  6698     1 
 6696  6699     1 
 6696  6700     1 
 6701  6718     1 
 6701  6719     1 
 6701  6723     1 
 6702  6706     1 
 6702  6707     1 
 6702  6708     1 
 6702  6710     1 
 6702  6711     1 
 6702  6712     1 
 6702  6714     1 
 6702  6715     1 
 6702  6716     1 
 6702  6720     1 
 6703  6705     1 
 6703  6709     1 
 6703  6713     1 
 6703  6718     1 
 6703  6719     1 
 6703  6723     1 
 6704  6705     1 
 6704  6709     1 
 6704  6713     1 
 6704  6718     1 
 6704  6719     1 
 6704  6723     1 
 6705  6710     1 
 6705  6711     1 
 6705  6712     1 
 6705  6714     1 
 6705  6715     1 
 6705  6716     1 
 6705  6717     1 
 6706  6709     1 
 6706  6713     1 
 6707  6709     1 
 6707  6713     1 
 6708  6709     1 
 6708  6713     1 
 6709  6714     1 
 6709  6715     1 
 6709  6716     1 
 6709  6717     1 
 6710  6713     1 
 6711  6713     1 
 6712  6713     1 
 6713  6717     1 
 6717  6721     1 
 6717  6722     1 
 6717  6724     1 
 6718  6720     1 
 6719  6720     1 
 6720  6726     1 
 6720  6727     1 
 6720  6728     1 
 6721  6725     1 
 6722  6725     1 
 6723  6725     1 
 6724  6729     1 
 6724  6730     1 
 6724  6736     1 
 6725  6731     1 
 6725  6737     1 
 6725  6738     1 
 6725  6739     1 
 6726  6729     1 
 6726  6730     1 
 6726  6736     1 
 6727  6729     1 
 6727  6730     1 
 6727  6736     1 
 6728  6732     1 
 6728  6733     1 
 6728  6740     1 
 6729  6731     1 
 6729  6737     1 
 6729  6738     1 
 6729  6739     1 
 6730  6734     1 
 6730  6735     1 
 6730  6737     1 
 6730  6738     1 
 6730  6739     1 
 6730  6745     1 
 6731  6736     1 
 6731  6746     1 
 6731  6747     1 
 6731  6748     1 
 6732  6734     1 
 6732  6735     1 
 6732  6745     1 
 6733  6749     1 
 6733  6750     1 
 6733  6751     1 
 6734  6746     1 
 6734  6747     1 
 6734  6748     1 
 6735  6746     1 
 6735  6747     1 
 6735  6748     1 
 6736  6741     1 
 6736  6742     1 
 6737  6740     1 
 6738  6740     1 
 6739  6743     1 
 6739  6744     1 
 6739  6792     1 
 6740  6793     1 
 6740  6794     1 
 6740  6795     1 
 6741  6743     1 
 6741  6744     1 
 6741  6792     1 
 6742  6796     1 
 6742  6797     1 
 6742  6798     1 
 6743  6793     1 
 6743  6794     1 
 6743  6795     1 
 6744  6793     1 
 6744  6794     1 
 6744  6795     1 
 6745  6752     1 
 6745  6753     1 
 6745  6754     1 
 6746  6749     1 
 6746  6750     1 
 6746  6751     1 
 6747  6749     1 
 6747  6750     1 
 6747  6751     1 
 6748  6755     1 
 6748  6756     1 
 6748  6757     1 
 6749  6752     1 
 6749  6753     1 
 6749  6754     1 
 6750  6752     1 
 6750  6753     1 
 6750  6754     1 
 6751  6758     1 
 6751  6759     1 
 6751  6760     1 
 6752  6755     1 
 6752  6756     1 
 6752  6757     1 
 6753  6755     1 
 6753  6756     1 
 6753  6757     1 
 6754  6761     1 
 6754  6762     1 
 6754  6763     1 
 6755  6758     1 
 6755  6759     1 
 6755  6760     1 
 6756  6758     1 
 6756  6759     1 
 6756  6760     1 
 6757  6764     1 
 6757  6765     1 
 6758  6761     1 
 6758  6762     1 
 6758  6763     1 
 6759  6761     1 
 6759  6762     1 
 6759  6763     1 
 6760  6766     1 
 6760  6767     1 
 6761  6764     1 
 6761  6765     1 
 6762  6764     1 
 6762  6765     1 
 6763  6768     1 
 6763  6769     1 
 6763  6770     1 
 6764  6766     1 
 6764  6767     1 
 6765  6771     1 
 6765  6772     1 
 6765  6773     1 
 6766  6768     1 
 6766  6769     1 
 6766  6770     1 
 6767  6774     1 
 6767  6775     1 
 6767  6776     1 
 6768  6771     1 
 6768  6772     1 
 6768  6773     1 
 6769  6771     1 
 6769  6772     1 
 6769  6773     1 
 6770  6777     1 
 6770  6778     1 
 6770  6779     1 
 6771  6774     1 
 6771  6775     1 
 6771  6776     1 
 6772  6774     1 
 6772  6775     1 
 6772  6776     1 
 6773  6780     1 
 6773  6781     1 
 6773  6782     1 
 6774  6777     1 
 6774  6778     1 
 6774  6779     1 
 6775  6777     1 
 6775  6778     1 
 6775  6779     1 
 6776  6783     1 
 6776  6784     1 
 6776  6785     1 
 6777  6780     1 
 6777  6781     1 
 6777  6782     1 
 6778  6780     1 
 6778  6781     1 
 6778  6782     1 
 6779  6786     1 
 6779  6787     1 
 6779  6788     1 
 6780  6783     1 
 6780  6784     1 
 6780  6785     1 
 6781  6783     1 
 6781  6784     1 
 6781  6785     1 
 6782  6789     1 
 6782  6790     1 
 6782  6791     1 
 6783  6786     1 
 6783  6787     1 
 6783  6788     1 
 6784  6786     1 
 6784  6787     1 
 6784  6788     1 
 6786  6789     1 
 6786  6790     1 
 6786  6791     1 
 6787  6789     1 
 6787  6790     1 
 6787  6791     1 
 6792  6799     1 
 6792  6800     1 
 6792  6801     1 
 6793  6796     1 
 6793  6797     1 
 6793  6798     1 
 6794  6796     1 
 6794  6797     1 
 6794  6798     1 
 6795  6802     1 
 6795  6803     1 
 6795  6804     1 
 6796  6799     1 
 6796  6800     1 
 6796  6801     1 
 6797  6799     1 
 6797  6800     1 
 6797  6801     1 
 6798  6805     1 
 6798  6806     1 
 6798  6807     1 
 6799  6802     1 
 6799  6803     1 
 6799  6804     1 
 6800  6802     1 
 6800  6803     1 
 6800  6804     1 
 6801  6808     1 
 6801  6809     1 
 6801  6810     1 
 6802  6805     1 
 6802  6806     1 
 6802  6807     1 
 6803  6805     1 
 6803  6806     1 
 6803  6807     1 
 6804  6811     1 
 6804  6812     1 
 6804  6813     1 
 6805  6808     1 
 6805  6809     1 
 6805  6810     1 
 6806  6808     1 
 6806  6809     1 
 6806  6810     1 
 6807  6814     1 
 6807  6815     1 
 6807  6816     1 
 6808  6811     1 
 6808  6812     1 
 6808  6813     1 
 6809  6811     1 
 6809  6812     1 
 6809  6813     1 
 6810  6817     1 
 6810  6818     1 
 6810  6819     1 
 6811  6814     1 
 6811  6815     1 
 6811  6816     1 
 6812  6814     1 
 6812  6815     1 
 6812  6816     1 
 6813  6820     1 
 6813  6821     1 
 6813  6822     1 
 6814  6817     1 
 6814  6818     1 
 6814  6819     1 
 6815  6817     1 
 6815  6818     1 
 6815  6819     1 
 6816  6823     1 
 6816  6824     1 
 6816  6825     1 
 6817  6820     1 
 6817  6821     1 
 6817  6822     1 
 6818  6820     1 
 6818  6821     1 
 6818  6822     1 
 6819  6826     1 
 6819  6827     1 
 6819  6828     1 
 6820  6823     1 
 6820  6824     1 
 6820  6825     1 
 6821  6823     1 
 6821  6824     1 
 6821  6825     1 
 6822  6829     1 
 6822  6830     1 
 6822  6831     1 
 6823  6826     1 
 6823  6827     1 
 6823  6828     1 
 6824  6826     1 
 6824  6827     1 
 6824  6828     1 
 6825  6832     1 
 6825  6833     1 
 6825  6834     1 
 6826  6829     1 
 6826  6830     1 
 6826  6831     1 
 6827  6829     1 
 6827  6830     1 
 6827  6831     1 
 6829  6832     1 
 6829  6833     1 
 6829  6834     1 
 6830  6832     1 
 6830  6833     1 
 6830  6834     1 
 6835  6852     1 
 6835  6853     1 
 6835  6857     1 
 6836  6840     1 
 6836  6841     1 
 6836  6842     1 
 6836  6844     1 
 6836  6845     1 
 6836  6846     1 
 6836  6848     1 
 6836  6849     1 
 6836  6850     1 
 6836  6854     1 
 6837  6839     1 
 6837  6843     1 
 6837  6847     1 
 6837  6852     1 
 6837  6853     1 
 6837  6857     1 
 6838  6839     1 
 6838  6843     1 
 6838  6847     1 
 6838  6852     1 
 6838  6853     1 
 6838  6857     1 
 6839  6844     1 
 6839  6845     1 
 6839  6846     1 
 6839  6848     1 
 6839  6849     1 
 6839  6850     1 
 6839  6851     1 
 6840  6843     1 
 6840  6847     1 
 6841  6843     1 
 6841  6847     1 
 6842  6843     1 
 6842  6847     1 
 6843  6848     1 
 6843  6849     1 
 6843  6850     1 
 6843  6851     1 
 6844  6847     1 
 6845  6847     1 
 6846  6847     1 
 6847  6851     1 
 6851  6855     1 
 6851  6856     1 
 6851  6858     1 
 6852  6854     1 
 6853  6854     1 
 6854  6860     1 
 6854  6861     1 
 6854  6862     1 
 6855  6859     1 
 6856  6859     1 
 6857  6859     1 
 6858  6863     1 
 6858  6864     1 
 6858  6870     1 
 6859  6865     1 
 6859  6871     1 
 6859  6872     1 
 6859  6873     1 
 6860  6863     1 
 6860  6864     1 
 6860  6870     1 
 6861  6863     1 
 6861  6864     1 
 6861  6870     1 
 6862  6866     1 
 6862  6867     1 
 6862  6874     1 
 6863  6865     1 
 6863  6871     1 
 6863  6872     1 
 6863  6873     1 
 6864  6868     1 
 6864  6869     1 
 6864  6871     1 
 6864  6872     1 
 6864  6873     1 
 6864  6879     1 
 6865  6870     1 
 6865  6880     1 
 6865  6881     1 
 6865  6882     1 
 6866  6868     1 
 6866  6869     1 
 6866  6879     1 
 6867  6883     1 
 6867  6884     1 
 6867  6885     1 
 6868  6880     1 
 6868  6881     1 
 6868  6882     1 
 6869  6880     1 
 6869  6881     1 
 6869  6882     1 
 6870  6875     1 
 6870  6876     1 
 6871  6874     1 
 6872  6874     1 
 6873  6877     1 
 6873  6878     1 
 6873  6926     1 
 6874  6927     1 
 6874  6928     1 
 6874  6929     1 
 6875  6877     1 
 6875  6878     1 
 6875  6926     1 
 6876  6930     1 
 6876  6931     1 
 6876  6932     1 
 6877  6927     1 
 6877  6928     1 
 6877  6929     1 
 6878  6927     1 
 6878  6928     1 
 6878  6929     1 
 6879  6886     1 
 6879  6887     1 
 6879  6888     1 
 6880  6883     1 
 6880  6884     1 
 6880  6885     1 
 6881  6883     1 
 6881  6884     1 
 6881  6885     1 
 6882  6889     1 
 6882  6890     1 
 6882  6891     1 
 6883  6886     1 
 6883  6887     1 
 6883  6888     1 
 6884  6886     1 
 6884  6887     1 
 6884  6888     1 
 6885  6892     1 
 6885  6893     1 
 6885  6894     1 
 6886  6889     1 
 6886  6890     1 
 6886  6891     1 
 6887  6889     1 
 6887  6890     1 
 6887  6891     1 
 6888  6895     1 
 6888  6896     1 
 6888  6897     1 
 6889  6892     1 
 6889  6893     1 
 6889  6894     1 
 6890  6892     1 
 6890  6893     1 
 6890  6894     1 
 6891  6898     1 
 6891  6899     1 
 6892  6895     1 
 6892  6896     1 
 6892  6897     1 
 6893  6895     1 
 6893  6896     1 
 6893  6897     1 
 6894  6900     1 
 6894  6901     1 
 6895  6898     1 
 6895  6899     1 
 6896  6898     1 
 6896  6899     1 
 6897  6902     1 
 6897  6903     1 
 6897  6904     1 
 6898  6900     1 
 6898  6901     1 
 6899  6905     1 
 6899  6906     1 
 6899  6907     1 
 6900  6902     1 
 6900  6903     1 
 6900  6904     1 
 6901  6908     1 
 6901  6909     1 
 6901  6910     1 
 6902  6905     1 
 6902  6906     1 
 6902  6907     1 
 6903  6905     1 
 6903  6906     1 
 6903  6907     1 
 6904  6911     1 
 6904  6912     1 
 6904  6913     1 
 6905  6908     1 
 6905  6909     1 
 6905  6910     1 
 6906  6908     1 
 6906  6909     1 
 6906  6910     1 
 6907  6914     1 
 6907  6915     1 
 6907  6916     1 
 6908  6911     1 
 6908  6912     1 
 6908  6913     1 
 6909  6911     1 
 6909  6912     1 
 6909  6913     1 
 6910  6917     1 
 6910  6918     1 
 6910  6919     1 
 6911  6914     1 
 6911  6915     1 
 6911  6916     1 
 6912  6914     1 
 6912  6915     1 
 6912  6916     1 
 6913  6920     1 
 6913  6921     1 
 6913  6922     1 
 6914  6917     1 
 6914  6918     1 
 6914  6919     1 
 6915  6917     1 
 6915  6918     1 
 6915  6919     1 
 6916  6923     1 
 6916  6924     1 
 6916  6925     1 
 6917  6920     1 
 6917  6921     1 
 6917  6922     1 
 6918  6920     1 
 6918  6921     1 
 6918  6922     1 
 6920  6923     1 
 6920  6924     1 
 6920  6925     1 
 6921  6923     1 
 6921  6924     1 
 6921  6925     1 
 6926  6933     1 
 6926  6934     1 
 6926  6935     1 
 6927  6930     1 
 6927  6931     1 
 6927  6932     1 
 6928  6930     1 
 6928  6931     1 
 6928  6932     1 
 6929  6936     1 
 6929  6937     1 
 6929  6938     1 
 6930  6933     1 
 6930  6934     1 
 6930  6935     1 
 6931  6933     1 
 6931  6934     1 
 6931  6935     1 
 6932  6939     1 
 6932  6940     1 
 6932  6941     1 
 6933  6936     1 
 6933  6937     1 
 6933  6938     1 
 6934  6936     1 
 6934  6937     1 
 6934  6938     1 
 6935  6942     1 
 6935  6943     1 
 6935  6944     1 
 6936  6939     1 
 6936  6940     1 
 6936  6941     1 
 6937  6939     1 
 6937  6940     1 
 6937  6941     1 
 6938  6945     1 
 6938  6946     1 
 6938  6947     1 
 6939  6942     1 
 6939  6943     1 
 6939  6944     1 
 6940  6942     1 
 6940  6943     1 
 6940  6944     1 
 6941  6948     1 
 6941  6949     1 
 6941  6950     1 
 6942  6945     1 
 6942  6946     1 
 6942  6947     1 
 6943  6945     1 
 6943  6946     1 
 6943  6947     1 
 6944  6951     1 
 6944  6952     1 
 6944  6953     1 
 6945  6948     1 
 6945  6949     1 
 6945  6950     1 
 6946  6948     1 
 6946  6949     1 
 6946  6950     1 
 6947  6954     1 
 6947  6955     1 
 6947  6956     1 
 6948  6951     1 
 6948  6952     1 
 6948  6953     1 
 6949  6951     1 
 6949  6952     1 
 6949  6953     1 
 6950  6957     1 
 6950  6958     1 
 6950  6959     1 
 6951  6954     1 
 6951  6955     1 
 6951  6956     1 
 6952  6954     1 
 6952  6955     1 
 6952  6956     1 
 6953  6960     1 
 6953  6961     1 
 6953  6962     1 
 6954  6957     1 
 6954  6958     1 
 6954  6959     1 
 6955  6957     1 
 6955  6958     1 
 6955  6959     1 
 6956  6963     1 
 6956  6964     1 
 6956  6965     1 
 6957  6960     1 
 6957  6961     1 
 6957  6962     1 
 6958  6960     1 
 6958  6961     1 
 6958  6962     1 
 6959  6966     1 
 6959  6967     1 
 6959  6968     1 
 6960  6963     1 
 6960  6964     1 
 6960  6965     1 
 6961  6963     1 
 6961  6964     1 
 6961  6965     1 
 6963  6966     1 
 6963  6967     1 
 6963  6968     1 
 6964  6966     1 
 6964  6967     1 
 6964  6968     1 
 6969  6986     1 
 6969  6987     1 
 6969  6991     1 
 6970  6974     1 
 6970  6975     1 
 6970  6976     1 
 6970  6978     1 
 6970  6979     1 
 6970  6980     1 
 6970  6982     1 
 6970  6983     1 
 6970  6984     1 
 6970  6988     1 
 6971  6973     1 
 6971  6977     1 
 6971  6981     1 
 6971  6986     1 
 6971  6987     1 
 6971  6991     1 
 6972  6973     1 
 6972  6977     1 
 6972  6981     1 
 6972  6986     1 
 6972  6987     1 
 6972  6991     1 
 6973  6978     1 
 6973  6979     1 
 6973  6980     1 
 6973  6982     1 
 6973  6983     1 
 6973  6984     1 
 6973  6985     1 
 6974  6977     1 
 6974  6981     1 
 6975  6977     1 
 6975  6981     1 
 6976  6977     1 
 6976  6981     1 
 6977  6982     1 
 6977  6983     1 
 6977  6984     1 
 6977  6985     1 
 6978  6981     1 
 6979  6981     1 
 6980  6981     1 
 6981  6985     1 
 6985  6989     1 
 6985  6990     1 
 6985  6992     1 
 6986  6988     1 
 6987  6988     1 
 6988  6994     1 
 6988  6995     1 
 6988  6996     1 
 6989  6993     1 
 6990  6993     1 
 6991  6993     1 
 6992  6997     1 
 6992  6998     1 
 6992  7004     1 
 6993  6999     1 
 6993  7005     1 
 6993  7006     1 
 6993  7007     1 
 6994  6997     1 
 6994  6998     1 
 6994  7004     1 
 6995  6997     1 
 6995  6998     1 
 6995  7004     1 
 6996  7000     1 
 6996  7001     1 
 6996  7008     1 
 6997  6999     1 
 6997  7005     1 
 6997  7006     1 
 6997  7007     1 
 6998  7002     1 
 6998  7003     1 
 6998  7005     1 
 6998  7006     1 
 6998  7007     1 
 6998  7013     1 
 6999  7004     1 
 6999  7014     1 
 6999  7015     1 
 6999  7016     1 
 7000  7002     1 
 7000  7003     1 
 7000  7013     1 
 7001  7017     1 
 7001  7018     1 
 7001  7019     1 
 7002  7014     1 
 7002  7015     1 
 7002  7016     1 
 7003  7014     1 
 7003  7015     1 
 7003  7016     1 
 7004  7009     1 
 7004  7010     1 
 7005  7008     1 
 7006  7008     1 
 7007  7011     1 
 7007  7012     1 
 7007  7060     1 
 7008  7061     1 
 7008  7062     1 
 7008  7063     1 
 7009  7011     1 
 7009  7012     1 
 7009  7060     1 
 7010  7064     1 
 7010  7065     1 
 7010  7066     1 
 7011  7061     1 
 7011  7062     1 
 7011  7063     1 
 7012  7061     1 
 7012  7062     1 
 7012  7063     1 
 7013  7020     1 
 7013  7021     1 
 7013  7022     1 
 7014  7017     1 
 7014  7018     1 
 7014  7019     1 
 7015  7017     1 
 7015  7018     1 
 7015  7019     1 
 7016  7023     1 
 7016  7024     1 
 7016  7025     1 
 7017  7020     1 
 7017  7021     1 
 7017  7022     1 
 7018  7020     1 
 7018  7021     1 
 7018  7022     1 
 7019  7026     1 
 7019  7027     1 
 7019  7028     1 
 7020  7023     1 
 7020  7024     1 
 7020  7025     1 
 7021  7023     1 
 7021  7024     1 
 7021  7025     1 
 7022  7029     1 
 7022  7030     1 
 7022  7031     1 
 7023  7026     1 
 7023  7027     1 
 7023  7028     1 
 7024  7026     1 
 7024  7027     1 
 7024  7028     1 
 7025  7032     1 
 7025  7033     1 
 7026  7029     1 
 7026  7030     1 
 7026  7031     1 
 7027  7029     1 
 7027  7030     1 
 7027  7031     1 
 7028  7034     1 
 7028  7035     1 
 7029  7032     1 
 7029  7033     1 
 7030  7032     1 
 7030  7033     1 
 7031  7036     1 
 7031  7037     1 
 7031  7038     1 
 7032  7034     1 
 7032  7035     1 
 7033  7039     1 
 7033  7040     1 
 7033  7041     1 
 7034  7036     1 
 7034  7037     1 
 7034  7038     1 
 7035  7042     1 
 7035  7043     1 
 7035  7044     1 
 7036  7039     1 
 7036  7040     1 
 7036  7041     1 
 7037  7039     1 
 7037  7040     1 
 7037  7041     1 
 7038  7045     1 
 7038  7046     1 
 7038  7047     1 
 7039  7042     1 
 7039  7043     1 
 7039  7044     1 
 7040  7042     1 
 7040  7043     1 
 7040  7044     1 
 7041  7048     1 
 7041  7049     1 
 7041  7050     1 
 7042  7045     1 
 7042  7046     1 
 7042  7047     1 
 7043  7045     1 
 7043  7046     1 
 7043  7047     1 
 7044  7051     1 
 7044  7052     1 
 7044  7053     1 
 7045  7048     1 
 7045  7049     1 
 7045  7050     1 
 7046  7048     1 
 7046  7049     1 
 7046  7050     1 
 7047  7054     1 
 7047  7055     1 
 7047  7056     1 
 7048  7051     1 
 7048  7052     1 
 7048  7053     1 
 7049  7051     1 
 7049  7052     1 
 7049  7053     1 
 7050  7057     1 
 7050  7058     1 
 7050  7059     1 
 7051  7054     1 
 7051  7055     1 
 7051  7056     1 
 7052  7054     1 
 7052  7055     1 
 7052  7056     1 
 7054  7057     1 
 7054  7058     1 
 7054  7059     1 
 7055  7057     1 
 7055  7058     1 
 7055  7059     1 
 7060  7067     1 
 7060  7068     1 
 7060  7069     1 
 7061  7064     1 
 7061  7065     1 
 7061  7066     1 
 7062  7064     1 
 7062  7065     1 
 7062  7066     1 
 7063  7070     1 
 7063  7071     1 
 7063  7072     1 
 7064  7067     1 
 7064  7068     1 
 7064  7069     1 
 7065  7067     1 
 7065  7068     1 
 7065  7069     1 
 7066  7073     1 
 7066  7074     1 
 7066  7075     1 
 7067  7070     1 
 7067  7071     1 
 7067  7072     1 
 7068  7070     1 
 7068  7071     1 
 7068  7072     1 
 7069  7076     1 
 7069  7077     1 
 7069  7078     1 
 7070  7073     1 
 7070  7074     1 
 7070  7075     1 
 7071  7073     1 
 7071  7074     1 
 7071  7075     1 
 7072  7079     1 
 7072  7080     1 
 7072  7081     1 
 7073  7076     1 
 7073  7077     1 
 7073  7078     1 
 7074  7076     1 
 7074  7077     1 
 7074  7078     1 
 7075  7082     1 
 7075  7083     1 
 7075  7084     1 
 7076  7079     1 
 7076  7080     1 
 7076  7081     1 
 7077  7079     1 
 7077  7080     1 
 7077  7081     1 
 7078  7085     1 
 7078  7086     1 
 7078  7087     1 
 7079  7082     1 
 7079  7083     1 
 7079  7084     1 
 7080  7082     1 
 7080  7083     1 
 7080  7084     1 
 7081  7088     1 
 7081  7089     1 
 7081  7090     1 
 7082  7085     1 
 7082  7086     1 
 7082  7087     1 
 7083  7085     1 
 7083  7086     1 
 7083  7087     1 
 7084  7091     1 
 7084  7092     1 
 7084  7093     1 
 7085  7088     1 
 7085  7089     1 
 7085  7090     1 
 7086  7088     1 
 7086  7089     1 
 7086  7090     1 
 7087  7094     1 
 7087  7095     1 
 7087  7096     1 
 7088  7091     1 
 7088  7092     1 
 7088  7093     1 
 7089  7091     1 
 7089  7092     1 
 7089  7093     1 
 7090  7097     1 
 7090  7098     1 
 7090  7099     1 
 7091  7094     1 
 7091  7095     1 
 7091  7096     1 
 7092  7094     1 
 7092  7095     1 
 7092  7096     1 
 7093  7100     1 
 7093  7101     1 
 7093  7102     1 
 7094  7097     1 
 7094  7098     1 
 7094  7099     1 
 7095  7097     1 
 7095  7098     1 
 7095  7099     1 
 7097  7100     1 
 7097  7101     1 
 7097  7102     1 
 7098  7100     1 
 7098  7101     1 
 7098  7102     1 
 7103  7120     1 
 7103  7121     1 
 7103  7125     1 
 7104  7108     1 
 7104  7109     1 
 7104  7110     1 
 7104  7112     1 
 7104  7113     1 
 7104  7114     1 
 7104  7116     1 
 7104  7117     1 
 7104  7118     1 
 7104  7122     1 
 7105  7107     1 
 7105  7111     1 
 7105  7115     1 
 7105  7120     1 
 7105  7121     1 
 7105  7125     1 
 7106  7107     1 
 7106  7111     1 
 7106  7115     1 
 7106  7120     1 
 7106  7121     1 
 7106  7125     1 
 7107  7112     1 
 7107  7113     1 
 7107  7114     1 
 7107  7116     1 
 7107  7117     1 
 7107  7118     1 
 7107  7119     1 
 7108  7111     1 
 7108  7115     1 
 7109  7111     1 
 7109  7115     1 
 7110  7111     1 
 7110  7115     1 
 7111  7116     1 
 7111  7117     1 
 7111  7118     1 
 7111  7119     1 
 7112  7115     1 
 7113  7115     1 
 7114  7115     1 
 7115  7119     1 
 7119  7123     1 
 7119  7124     1 
 7119  7126     1 
 7120  7122     1 
 7121  7122     1 
 7122  7128     1 
 7122  7129     1 
 7122  7130     1 
 7123  7127     1 
 7124  7127     1 
 7125  7127     1 
 7126  7131     1 
 7126  7132     1 
 7126  7138     1 
 7127  7133     1 
 7127  7139     1 
 7127  7140     1 
 7127  7141     1 
 7128  7131     1 
 7128  7132     1 
 7128  7138     1 
 7129  7131     1 
 7129  7132     1 
 7129  7138     1 
 7130  7134     1 
 7130  7135     1 
 7130  7142     1 
 7131  7133     1 
 7131  7139     1 
 7131  7140     1 
 7131  7141     1 
 7132  7136     1 
 7132  7137     1 
 7132  7139     1 
 7132  7140     1 
 7132  7141     1 
 7132  7147     1 
 7133  7138     1 
 7133  7148     1 
 7133  7149     1 
 7133  7150     1 
 7134  7136     1 
 7134  7137     1 
 7134  7147     1 
 7135  7151     1 
 7135  7152     1 
 7135  7153     1 
 7136  7148     1 
 7136  7149     1 
 7136  7150     1 
 7137  7148     1 
 7137  7149     1 
 7137  7150     1 
 7138  7143     1 
 7138  7144     1 
 7139  7142     1 
 7140  7142     1 
 7141  7145     1 
 7141  7146     1 
 7141  7194     1 
 7142  7195     1 
 7142  7196     1 
 7142  7197     1 
 7143  7145     1 
 7143  7146     1 
 7143  7194     1 
 7144  7198     1 
 7144  7199     1 
 7144  7200     1 
 7145  7195     1 
 7145  7196     1 
 7145  7197     1 
 7146  7195     1 
 7146  7196     1 
 7146  7197     1 
 7147  7154     1 
 7147  7155     1 
 7147  7156     1 
 7148  7151     1 
 7148  7152     1 
 7148  7153     1 
 7149  7151     1 
 7149  7152     1 
 7149  7153     1 
 7150  7157     1 
 7150  7158     1 
 7150  7159     1 
 7151  7154     1 
 7151  7155     1 
 7151  7156     1 
 7152  7154     1 
 7152  7155     1 
 7152  7156     1 
 7153  7160     1 
 7153  7161     1 
 7153  7162     1 
 7154  7157     1 
 7154  7158     1 
 7154  7159     1 
 7155  7157     1 
 7155  7158     1 
 7155  7159     1 
 7156  7163     1 
 7156  7164     1 
 7156  7165     1 
 7157  7160     1 
 7157  7161     1 
 7157  7162     1 
 7158  7160     1 
 7158  7161     1 
 7158  7162     1 
 7159  7166     1 
 7159  7167     1 
 7160  7163     1 
 7160  7164     1 
 7160  7165     1 
 7161  7163     1 
 7161  7164     1 
 7161  7165     1 
 7162  7168     1 
 7162  7169     1 
 7163  7166     1 
 7163  7167     1 
 7164  7166     1 
 7164  7167     1 
 7165  7170     1 
 7165  7171     1 
 7165  7172     1 
 7166  7168     1 
 7166  7169     1 
 7167  7173     1 
 7167  7174     1 
 7167  7175     1 
 7168  7170     1 
 7168  7171     1 
 7168  7172     1 
 7169  7176     1 
 7169  7177     1 
 7169  7178     1 
 7170  7173     1 
 7170  7174     1 
 7170  7175     1 
 7171  7173     1 
 7171  7174     1 
 7171  7175     1 
 7172  7179     1 
 7172  7180     1 
 7172  7181     1 
 7173  7176     1 
 7173  7177     1 
 7173  7178     1 
 7174  7176     1 
 7174  7177     1 
 7174  7178     1 
 7175  7182     1 
 7175  7183     1 
 7175  7184     1 
 7176  7179     1 
 7176  7180     1 
 7176  7181     1 
 7177  7179     1 
 7177  7180     1 
 7177  7181     1 
 7178  7185     1 
 7178  7186     1 
 7178  7187     1 
 7179  7182     1 
 7179  7183     1 
 7179  7184     1 
 7180  7182     1 
 7180  7183     1 
 7180  7184     1 
 7181  7188     1 
 7181  7189     1 
 7181  7190     1 
 7182  7185     1 
 7182  7186     1 
 7182  7187     1 
 7183  7185     1 
 7183  7186     1 
 7183  7187     1 
 7184  7191     1 
 7184  7192     1 
 7184  7193     1 
 7185  7188     1 
 7185  7189     1 
 7185  7190     1 
 7186  7188     1 
 7186  7189     1 
 7186  7190     1 
 7188  7191     1 
 7188  7192     1 
 7188  7193     1 
 7189  7191     1 
 7189  7192     1 
 7189  7193     1 
 7194  7201     1 
 7194  7202     1 
 7194  7203     1 
 7195  7198     1 
 7195  7199     1 
 7195  7200     1 
 7196  7198     1 
 7196  7199     1 
 7196  7200     1 
 7197  7204     1 
 7197  7205     1 
 7197  7206     1 
 7198  7201     1 
 7198  7202     1 
 7198  7203     1 
 7199  7201     1 
 7199  7202     1 
 7199  7203     1 
 7200  7207     1 
 7200  7208     1 
 7200  7209     1 
 7201  7204     1 
 7201  7205     1 
 7201  7206     1 
 7202  7204     1 
 7202  7205     1 
 7202  7206     1 
 7203  7210     1 
 7203  7211     1 
 7203  7212     1 
 7204  7207     1 
 7204  7208     1 
 7204  7209     1 
 7205  7207     1 
 7205  7208     1 
 7205  7209     1 
 7206  7213     1 
 7206  7214     1 
 7206  7215     1 
 7207  7210     1 
 7207  7211     1 
 7207  7212     1 
 7208  7210     1 
 7208  7211     1 
 7208  7212     1 
 7209  7216     1 
 7209  7217     1 
 7209  7218     1 
 7210  7213     1 
 7210  7214     1 
 7210  7215     1 
 7211  7213     1 
 7211  7214     1 
 7211  7215     1 
 7212  7219     1 
 7212  7220     1 
 7212  7221     1 
 7213  7216     1 
 7213  7217     1 
 7213  7218     1 
 7214  7216     1 
 7214  7217     1 
 7214  7218     1 
 7215  7222     1 
 7215  7223     1 
 7215  7224     1 
 7216  7219     1 
 7216  7220     1 
 7216  7221     1 
 7217  7219     1 
 7217  7220     1 
 7217  7221     1 
 7218  7225     1 
 7218  7226     1 
 7218  7227     1 
 7219  7222     1 
 7219  7223     1 
 7219  7224     1 
 7220  7222     1 
 7220  7223     1 
 7220  7224     1 
 7221  7228     1 
 7221  7229     1 
 7221  7230     1 
 7222  7225     1 
 7222  7226     1 
 7222  7227     1 
 7223  7225     1 
 7223  7226     1 
 7223  7227     1 
 7224  7231     1 
 7224  7232     1 
 7224  7233     1 
 7225  7228     1 
 7225  7229     1 
 7225  7230     1 
 7226  7228     1 
 7226  7229     1 
 7226  7230     1 
 7227  7234     1 
 7227  7235     1 
 7227  7236     1 
 7228  7231     1 
 7228  7232     1 
 7228  7233     1 
 7229  7231     1 
 7229  7232     1 
 7229  7233     1 
 7231  7234     1 
 7231  7235     1 
 7231  7236     1 
 7232  7234     1 
 7232  7235     1 
 7232  7236     1 
 7237  7254     1 
 7237  7255     1 
 7237  7259     1 
 7238  7242     1 
 7238  7243     1 
 7238  7244     1 
 7238  7246     1 
 7238  7247     1 
 7238  7248     1 
 7238  7250     1 
 7238  7251     1 
 7238  7252     1 
 7238  7256     1 
 7239  7241     1 
 7239  7245     1 
 7239  7249     1 
 7239  7254     1 
 7239  7255     1 
 7239  7259     1 
 7240  7241     1 
 7240  7245     1 
 7240  7249     1 
 7240  7254     1 
 7240  7255     1 
 7240  7259     1 
 7241  7246     1 
 7241  7247     1 
 7241  7248     1 
 7241  7250     1 
 7241  7251     1 
 7241  7252     1 
 7241  7253     1 
 7242  7245     1 
 7242  7249     1 
 7243  7245     1 
 7243  7249     1 
 7244  7245     1 
 7244  7249     1 
 7245  7250     1 
 7245  7251     1 
 7245  7252     1 
 7245  7253     1 
 7246  7249     1 
 7247  7249     1 
 7248  7249     1 
 7249  7253     1 
 7253  7257     1 
 7253  7258     1 
 7253  7260     1 
 7254  7256     1 
 7255  7256     1 
 7256  7262     1 
 7256  7263     1 
 7256  7264     1 
 7257  7261     1 
 7258  7261     1 
 7259  7261     1 
 7260  7265     1 
 7260  7266     1 
 7260  7272     1 
 7261  7267     1 
 7261  7273     1 
 7261  7274     1 
 7261  7275     1 
 7262  7265     1 
 7262  7266     1 
 7262  7272     1 
 7263  7265     1 
 7263  7266     1 
 7263  7272     1 
 7264  7268     1 
 7264  7269     1 
 7264  7276     1 
 7265  7267     1 
 7265  7273     1 
 7265  7274     1 
 7265  7275     1 
 7266  7270     1 
 7266  7271     1 
 7266  7273     1 
 7266  7274     1 
 7266  7275     1 
 7266  7281     1 
 7267  7272     1 
 7267  7282     1 
 7267  7283     1 
 7267  7284     1 
 7268  7270     1 
 7268  7271     1 
 7268  7281     1 
 7269  7285     1 
 7269  7286     1 
 7269  7287     1 
 7270  7282     1 
 7270  7283     1 
 7270  7284     1 
 7271  7282     1 
 7271  7283     1 
 7271  7284     1 
 7272  7277     1 
 7272  7278     1 
 7273  7276     1 
 7274  7276     1 
 7275  7279     1 
 7275  7280     1 
 7275  7328     1 
 7276  7329     1 
 7276  7330     1 
 7276  7331     1 
 7277  7279     1 
 7277  7280     1 
 7277  7328     1 
 7278  7332     1 
 7278  7333     1 
 7278  7334     1 
 7279  7329     1 
 7279  7330     1 
 7279  7331     1 
 7280  7329     1 
 7280  7330     1 
 7280  7331     1 
 7281  7288     1 
 7281  7289     1 
 7281  7290     1 
 7282  7285     1 
 7282  7286     1 
 7282  7287     1 
 7283  7285     1 
 7283  7286     1 
 7283  7287     1 
 7284  7291     1 
 7284  7292     1 
 7284  7293     1 
 7285  7288     1 
 7285  7289     1 
 7285  7290     1 
 7286  7288     1 
 7286  7289     1 
 7286  7290     1 
 7287  7294     1 
 7287  7295     1 
 7287  7296     1 
 7288  7291     1 
 7288  7292     1 
 7288  7293     1 
 7289  7291     1 
 7289  7292     1 
 7289  7293     1 
 7290  7297     1 
 7290  7298     1 
 7290  7299     1 
 7291  7294     1 
 7291  7295     1 
 7291  7296     1 
 7292  7294     1 
 7292  7295     1 
 7292  7296     1 
 7293  7300     1 
 7293  7301     1 
 7294  7297     1 
 7294  7298     1 
 7294  7299     1 
 7295  7297     1 
 7295  7298     1 
 7295  7299     1 
 7296  7302     1 
 7296  7303     1 
 7297  7300     1 
 7297  7301     1 
 7298  7300     1 
 7298  7301     1 
 7299  7304     1 
 7299  7305     1 
 7299  7306     1 
 7300  7302     1 
 7300  7303     1 
 7301  7307     1 
 7301  7308     1 
 7301  7309     1 
 7302  7304     1 
 7302  7305     1 
 7302  7306     1 
 7303  7310     1 
 7303  7311     1 
 7303  7312     1 
 7304  7307     1 
 7304  7308     1 
 7304  7309     1 
 7305  7307     1 
 7305  7308     1 
 7305  7309     1 
 7306  7313     1 
 7306  7314     1 
 7306  7315     1 
 7307  7310     1 
 7307  7311     1 
 7307  7312     1 
 7308  7310     1 
 7308  7311     1 
 7308  7312     1 
 7309  7316     1 
 7309  7317     1 
 7309  7318     1 
 7310  7313     1 
 7310  7314     1 
 7310  7315     1 
 7311  7313     1 
 7311  7314     1 
 7311  7315     1 
 7312  7319     1 
 7312  7320     1 
 7312  7321     1 
 7313  7316     1 
 7313  7317     1 
 7313  7318     1 
 7314  7316     1 
 7314  7317     1 
 7314  7318     1 
 7315  7322     1 
 7315  7323     1 
 7315  7324     1 
 7316  7319     1 
 7316  7320     1 
 7316  7321     1 
 7317  7319     1 
 7317  7320     1 
 7317  7321     1 
 7318  7325     1 
 7318  7326     1 
 7318  7327     1 
 7319  7322     1 
 7319  7323     1 
 7319  7324     1 
 7320  7322     1 
 7320  7323     1 
 7320  7324     1 
 7322  7325     1 
 7322  7326     1 
 7322  7327     1 
 7323  7325     1 
 7323  7326     1 
 7323  7327     1 
 7328  7335     1 
 7328  7336     1 
 7328  7337     1 
 7329  7332     1 
 7329  7333     1 
 7329  7334     1 
 7330  7332     1 
 7330  7333     1 
 7330  7334     1 
 7331  7338     1 
 7331  7339     1 
 7331  7340     1 
 7332  7335     1 
 7332  7336     1 
 7332  7337     1 
 7333  7335     1 
 7333  7336     1 
 7333  7337     1 
 7334  7341     1 
 7334  7342     1 
 7334  7343     1 
 7335  7338     1 
 7335  7339     1 
 7335  7340     1 
 7336  7338     1 
 7336  7339     1 
 7336  7340     1 
 7337  7344     1 
 7337  7345     1 
 7337  7346     1 
 7338  7341     1 
 7338  7342     1 
 7338  7343     1 
 7339  7341     1 
 7339  7342     1 
 7339  7343     1 
 7340  7347     1 
 7340  7348     1 
 7340  7349     1 
 7341  7344     1 
 7341  7345     1 
 7341  7346     1 
 7342  7344     1 
 7342  7345     1 
 7342  7346     1 
 7343  7350     1 
 7343  7351     1 
 7343  7352     1 
 7344  7347     1 
 7344  7348     1 
 7344  7349     1 
 7345  7347     1 
 7345  7348     1 
 7345  7349     1 
 7346  7353     1 
 7346  7354     1 
 7346  7355     1 
 7347  7350     1 
 7347  7351     1 
 7347  7352     1 
 7348  7350     1 
 7348  7351     1 
 7348  7352     1 
 7349  7356     1 
 7349  7357     1 
 7349  7358     1 
 7350  7353     1 
 7350  7354     1 
 7350  7355     1 
 7351  7353     1 
 7351  7354     1 
 7351  7355     1 
 7352  7359     1 
 7352  7360     1 
 7352  7361     1 
 7353  7356     1 
 7353  7357     1 
 7353  7358     1 
 7354  7356     1 
 7354  7357     1 
 7354  7358     1 
 7355  7362     1 
 7355  7363     1 
 7355  7364     1 
 7356  7359     1 
 7356  7360     1 
 7356  7361     1 
 7357  7359     1 
 7357  7360     1 
 7357  7361     1 
 7358  7365     1 
 7358  7366     1 
 7358  7367     1 
 7359  7362     1 
 7359  7363     1 
 7359  7364     1 
 7360  7362     1 
 7360  7363     1 
 7360  7364     1 
 7361  7368     1 
 7361  7369     1 
 7361  7370     1 
 7362  7365     1 
 7362  7366     1 
 7362  7367     1 
 7363  7365     1 
 7363  7366     1 
 7363  7367     1 
 7365  7368     1 
 7365  7369     1 
 7365  7370     1 
 7366  7368     1 
 7366  7369     1 
 7366  7370     1 
 7371  7388     1 
 7371  7389     1 
 7371  7393     1 
 7372  7376     1 
 7372  7377     1 
 7372  7378     1 
 7372  7380     1 
 7372  7381     1 
 7372  7382     1 
 7372  7384     1 
 7372  7385     1 
 7372  7386     1 
 7372  7390     1 
 7373  7375     1 
 7373  7379     1 
 7373  7383     1 
 7373  7388     1 
 7373  7389     1 
 7373  7393     1 
 7374  7375     1 
 7374  7379     1 
 7374  7383     1 
 7374  7388     1 
 7374  7389     1 
 7374  7393     1 
 7375  7380     1 
 7375  7381     1 
 7375  7382     1 
 7375  7384     1 
 7375  7385     1 
 7375  7386     1 
 7375  7387     1 
 7376  7379     1 
 7376  7383     1 
 7377  7379     1 
 7377  7383     1 
 7378  7379     1 
 7378  7383     1 
 7379  7384     1 
 7379  7385     1 
 7379  7386     1 
 7379  7387     1 
 7380  7383     1 
 7381  7383     1 
 7382  7383     1 
 7383  7387     1 
 7387  7391     1 
 7387  7392     1 
 7387  7394     1 
 7388  7390     1 
 7389  7390     1 
 7390  7396     1 
 7390  7397     1 
 7390  7398     1 
 7391  7395     1 
 7392  7395     1 
 7393  7395     1 
 7394  7399     1 
 7394  7400     1 
 7394  7406     1 
 7395  7401     1 
 7395  7407     1 
 7395  7408     1 
 7395  7409     1 
 7396  7399     1 
 7396  7400     1 
 7396  7406     1 
 7397  7399     1 
 7397  7400     1 
 7397  7406     1 
 7398  7402     1 
 7398  7403     1 
 7398  7410     1 
 7399  7401     1 
 7399  7407     1 
 7399  7408     1 
 7399  7409     1 
 7400  7404     1 
 7400  7405     1 
 7400  7407     1 
 7400  7408     1 
 7400  7409     1 
 7400  7415     1 
 7401  7406     1 
 7401  7416     1 
 7401  7417     1 
 7401  7418     1 
 7402  7404     1 
 7402  7405     1 
 7402  7415     1 
 7403  7419     1 
 7403  7420     1 
 7403  7421     1 
 7404  7416     1 
 7404  7417     1 
 7404  7418     1 
 7405  7416     1 
 7405  7417     1 
 7405  7418     1 
 7406  7411     1 
 7406  7412     1 
 7407  7410     1 
 7408  7410     1 
 7409  7413     1 
 7409  7414     1 
 7409  7462     1 
 7410  7463     1 
 7410  7464     1 
 7410  7465     1 
 7411  7413     1 
 7411  7414     1 
 7411  7462     1 
 7412  7466     1 
 7412  7467     1 
 7412  7468     1 
 7413  7463     1 
 7413  7464     1 
 7413  7465     1 
 7414  7463     1 
 7414  7464     1 
 7414  7465     1 
 7415  7422     1 
 7415  7423     1 
 7415  7424     1 
 7416  7419     1 
 7416  7420     1 
 7416  7421     1 
 7417  7419     1 
 7417  7420     1 
 7417  7421     1 
 7418  7425     1 
 7418  7426     1 
 7418  7427     1 
 7419  7422     1 
 7419  7423     1 
 7419  7424     1 
 7420  7422     1 
 7420  7423     1 
 7420  7424     1 
 7421  7428     1 
 7421  7429     1 
 7421  7430     1 
 7422  7425     1 
 7422  7426     1 
 7422  7427     1 
 7423  7425     1 
 7423  7426     1 
 7423  7427     1 
 7424  7431     1 
 7424  7432     1 
 7424  7433     1 
 7425  7428     1 
 7425  7429     1 
 7425  7430     1 
 7426  7428     1 
 7426  7429     1 
 7426  7430     1 
 7427  7434     1 
 7427  7435     1 
 7428  7431     1 
 7428  7432     1 
 7428  7433     1 
 7429  7431     1 
 7429  7432     1 
 7429  7433     1 
 7430  7436     1 
 7430  7437     1 
 7431  7434     1 
 7431  7435     1 
 7432  7434     1 
 7432  7435     1 
 7433  7438     1 
 7433  7439     1 
 7433  7440     1 
 7434  7436     1 
 7434  7437     1 
 7435  7441     1 
 7435  7442     1 
 7435  7443     1 
 7436  7438     1 
 7436  7439     1 
 7436  7440     1 
 7437  7444     1 
 7437  7445     1 
 7437  7446     1 
 7438  7441     1 
 7438  7442     1 
 7438  7443     1 
 7439  7441     1 
 7439  7442     1 
 7439  7443     1 
 7440  7447     1 
 7440  7448     1 
 7440  7449     1 
 7441  7444     1 
 7441  7445     1 
 7441  7446     1 
 7442  7444     1 
 7442  7445     1 
 7442  7446     1 
 7443  7450     1 
 7443  7451     1 
 7443  7452     1 
 7444  7447     1 
 7444  7448     1 
 7444  7449     1 
 7445  7447     1 
 7445  7448     1 
 7445  7449     1 
 7446  7453     1 
 7446  7454     1 
 7446  7455     1 
 7447  7450     1 
 7447  7451     1 
 7447  7452     1 
 7448  7450     1 
 7448  7451     1 
 7448  7452     1 
 7449  7456     1 
 7449  7457     1 
 7449  7458     1 
 7450  7453     1 
 7450  7454     1 
 7450  7455     1 
 7451  7453     1 
 7451  7454     1 
 7451  7455     1 
 7452  7459     1 
 7452  7460     1 
 7452  7461     1 
 7453  7456     1 
 7453  7457     1 
 7453  7458     1 
 7454  7456     1 
 7454  7457     1 
 7454  7458     1 
 7456  7459     1 
 7456  7460     1 
 7456  7461     1 
 7457  7459     1 
 7457  7460     1 
 7457  7461     1 
 7462  7469     1 
 7462  7470     1 
 7462  7471     1 
 7463  7466     1 
 7463  7467     1 
 7463  7468     1 
 7464  7466     1 
 7464  7467     1 
 7464  7468     1 
 7465  7472     1 
 7465  7473     1 
 7465  7474     1 
 7466  7469     1 
 7466  7470     1 
 7466  7471     1 
 7467  7469     1 
 7467  7470     1 
 7467  7471     1 
 7468  7475     1 
 7468  7476     1 
 7468  7477     1 
 7469  7472     1 
 7469  7473     1 
 7469  7474     1 
 7470  7472     1 
 7470  7473     1 
 7470  7474     1 
 7471  7478     1 
 7471  7479     1 
 7471  7480     1 
 7472  7475     1 
 7472  7476     1 
 7472  7477     1 
 7473  7475     1 
 7473  7476     1 
 7473  7477     1 
 7474  7481     1 
 7474  7482     1 
 7474  7483     1 
 7475  7478     1 
 7475  7479     1 
 7475  7480     1 
 7476  7478     1 
 7476  7479     1 
 7476  7480     1 
 7477  7484     1 
 7477  7485     1 
 7477  7486     1 
 7478  7481     1 
 7478  7482     1 
 7478  7483     1 
 7479  7481     1 
 7479  7482     1 
 7479  7483     1 
 7480  7487     1 
 7480  7488     1 
 7480  7489     1 
 7481  7484     1 
 7481  7485     1 
 7481  7486     1 
 7482  7484     1 
 7482  7485     1 
 7482  7486     1 
 7483  7490     1 
 7483  7491     1 
 7483  7492     1 
 7484  7487     1 
 7484  7488     1 
 7484  7489     1 
 7485  7487     1 
 7485  7488     1 
 7485  7489     1 
 7486  7493     1 
 7486  7494     1 
 7486  7495     1 
 7487  7490     1 
 7487  7491     1 
 7487  7492     1 
 7488  7490     1 
 7488  7491     1 
 7488  7492     1 
 7489  7496     1 
 7489  7497     1 
 7489  7498     1 
 7490  7493     1 
 7490  7494     1 
 7490  7495     1 
 7491  7493     1 
 7491  7494     1 
 7491  7495     1 
 7492  7499     1 
 7492  7500     1 
 7492  7501     1 
 7493  7496     1 
 7493  7497     1 
 7493  7498     1 
 7494  7496     1 
 7494  7497     1 
 7494  7498     1 
 7495  7502     1 
 7495  7503     1 
 7495  7504     1 
 7496  7499     1 
 7496  7500     1 
 7496  7501     1 
 7497  7499     1 
 7497  7500     1 
 7497  7501     1 
 7499  7502     1 
 7499  7503     1 
 7499  7504     1 
 7500  7502     1 
 7500  7503     1 
 7500  7504     1 
 7505  7522     1 
 7505  7523     1 
 7505  7527     1 
 7506  7510     1 
 7506  7511     1 
 7506  7512     1 
 7506  7514     1 
 7506  7515     1 
 7506  7516     1 
 7506  7518     1 
 7506  7519     1 
 7506  7520     1 
 7506  7524     1 
 7507  7509     1 
 7507  7513     1 
 7507  7517     1 
 7507  7522     1 
 7507  7523     1 
 7507  7527     1 
 7508  7509     1 
 7508  7513     1 
 7508  7517     1 
 7508  7522     1 
 7508  7523     1 
 7508  7527     1 
 7509  7514     1 
 7509  7515     1 
 7509  7516     1 
 7509  7518     1 
 7509  7519     1 
 7509  7520     1 
 7509  7521     1 
 7510  7513     1 
 7510  7517     1 
 7511  7513     1 
 7511  7517     1 
 7512  7513     1 
 7512  7517     1 
 7513  7518     1 
 7513  7519     1 
 7513  7520     1 
 7513  7521     1 
 7514  7517     1 
 7515  7517     1 
 7516  7517     1 
 7517  7521     1 
 7521  7525     1 
 7521  7526     1 
 7521  7528     1 
 7522  7524     1 
 7523  7524     1 
 7524  7530     1 
 7524  7531     1 
 7524  7532     1 
 7525  7529     1 
 7526  7529     1 
 7527  7529     1 
 7528  7533     1 
 7528  7534     1 
 7528  7540     1 
 7529  7535     1 
 7529  7541     1 
 7529  7542     1 
 7529  7543     1 
 7530  7533     1 
 7530  7534     1 
 7530  7540     1 
 7531  7533     1 
 7531  7534     1 
 7531  7540     1 
 7532  7536     1 
 7532  7537     1 
 7532  7544     1 
 7533  7535     1 
 7533  7541     1 
 7533  7542     1 
 7533  7543     1 
 7534  7538     1 
 7534  7539     1 
 7534  7541     1 
 7534  7542     1 
 7534  7543     1 
 7534  7549     1 
 7535  7540     1 
 7535  7550     1 
 7535  7551     1 
 7535  7552     1 
 7536  7538     1 
 7536  7539     1 
 7536  7549     1 
 7537  7553     1 
 7537  7554     1 
 7537  7555     1 
 7538  7550     1 
 7538  7551     1 
 7538  7552     1 
 7539  7550     1 
 7539  7551     1 
 7539  7552     1 
 7540  7545     1 
 7540  7546     1 
 7541  7544     1 
 7542  7544     1 
 7543  7547     1 
 7543  7548     1 
 7543  7596     1 
 7544  7597     1 
 7544  7598     1 
 7544  7599     1 
 7545  7547     1 
 7545  7548     1 
 7545  7596     1 
 7546  7600     1 
 7546  7601     1 
 7546  7602     1 
 7547  7597     1 
 7547  7598     1 
 7547  7599     1 
 7548  7597     1 
 7548  7598     1 
 7548  7599     1 
 7549  7556     1 
 7549  7557     1 
 7549  7558     1 
 7550  7553     1 
 7550  7554     1 
 7550  7555     1 
 7551  7553     1 
 7551  7554     1 
 7551  7555     1 
 7552  7559     1 
 7552  7560     1 
 7552  7561     1 
 7553  7556     1 
 7553  7557     1 
 7553  7558     1 
 7554  7556     1 
 7554  7557     1 
 7554  7558     1 
 7555  7562     1 
 7555  7563     1 
 7555  7564     1 
 7556  7559     1 
 7556  7560     1 
 7556  7561     1 
 7557  7559     1 
 7557  7560     1 
 7557  7561     1 
 7558  7565     1 
 7558  7566     1 
 7558  7567     1 
 7559  7562     1 
 7559  7563     1 
 7559  7564     1 
 7560  7562     1 
 7560  7563     1 
 7560  7564     1 
 7561  7568     1 
 7561  7569     1 
 7562  7565     1 
 7562  7566     1 
 7562  7567     1 
 7563  7565     1 
 7563  7566     1 
 7563  7567     1 
 7564  7570     1 
 7564  7571     1 
 7565  7568     1 
 7565  7569     1 
 7566  7568     1 
 7566  7569     1 
 7567  7572     1 
 7567  7573     1 
 7567  7574     1 
 7568  7570     1 
 7568  7571     1 
 7569  7575     1 
 7569  7576     1 
 7569  7577     1 
 7570  7572     1 
 7570  7573     1 
 7570  7574     1 
 7571  7578     1 
 7571  7579     1 
 7571  7580     1 
 7572  7575     1 
 7572  7576     1 
 7572  7577     1 
 7573  7575     1 
 7573  7576     1 
 7573  7577     1 
 7574  7581     1 
 7574  7582     1 
 7574  7583     1 
 7575  7578     1 
 7575  7579     1 
 7575  7580     1 
 7576  7578     1 
 7576  7579     1 
 7576  7580     1 
 7577  7584     1 
 7577  7585     1 
 7577  7586     1 
 7578  7581     1 
 7578  7582     1 
 7578  7583     1 
 7579  7581     1 
 7579  7582     1 
 7579  7583     1 
 7580  7587     1 
 7580  7588     1 
 7580  7589     1 
 7581  7584     1 
 7581  7585     1 
 7581  7586     1 
 7582  7584     1 
 7582  7585     1 
 7582  7586     1 
 7583  7590     1 
 7583  7591     1 
 7583  7592     1 
 7584  7587     1 
 7584  7588     1 
 7584  7589     1 
 7585  7587     1 
 7585  7588     1 
 7585  7589     1 
 7586  7593     1 
 7586  7594     1 
 7586  7595     1 
 7587  7590     1 
 7587  7591     1 
 7587  7592     1 
 7588  7590     1 
 7588  7591     1 
 7588  7592     1 
 7590  7593     1 
 7590  7594     1 
 7590  7595     1 
 7591  7593     1 
 7591  7594     1 
 7591  7595     1 
 7596  7603     1 
 7596  7604     1 
 7596  7605     1 
 7597  7600     1 
 7597  7601     1 
 7597  7602     1 
 7598  7600     1 
 7598  7601     1 
 7598  7602     1 
 7599  7606     1 
 7599  7607     1 
 7599  7608     1 
 7600  7603     1 
 7600  7604     1 
 7600  7605     1 
 7601  7603     1 
 7601  7604     1 
 7601  7605     1 
 7602  7609     1 
 7602  7610     1 
 7602  7611     1 
 7603  7606     1 
 7603  7607     1 
 7603  7608     1 
 7604  7606     1 
 7604  7607     1 
 7604  7608     1 
 7605  7612     1 
 7605  7613     1 
 7605  7614     1 
 7606  7609     1 
 7606  7610     1 
 7606  7611     1 
 7607  7609     1 
 7607  7610     1 
 7607  7611     1 
 7608  7615     1 
 7608  7616     1 
 7608  7617     1 
 7609  7612     1 
 7609  7613     1 
 7609  7614     1 
 7610  7612     1 
 7610  7613     1 
 7610  7614     1 
 7611  7618     1 
 7611  7619     1 
 7611  7620     1 
 7612  7615     1 
 7612  7616     1 
 7612  7617     1 
 7613  7615     1 
 7613  7616     1 
 7613  7617     1 
 7614  7621     1 
 7614  7622     1 
 7614  7623     1 
 7615  7618     1 
 7615  7619     1 
 7615  7620     1 
 7616  7618     1 
 7616  7619     1 
 7616  7620     1 
 7617  7624     1 
 7617  7625     1 
 7617  7626     1 
 7618  7621     1 
 7618  7622     1 
 7618  7623     1 
 7619  7621     1 
 7619  7622     1 
 7619  7623     1 
 7620  7627     1 
 7620  7628     1 
 7620  7629     1 
 7621  7624     1 
 7621  7625     1 
 7621  7626     1 
 7622  7624     1 
 7622  7625     1 
 7622  7626     1 
 7623  7630     1 
 7623  7631     1 
 7623  7632     1 
 7624  7627     1 
 7624  7628     1 
 7624  7629     1 
 7625  7627     1 
 7625  7628     1 
 7625  7629     1 
 7626  7633     1 
 7626  7634     1 
 7626  7635     1 
 7627  7630     1 
 7627  7631     1 
 7627  7632     1 
 7628  7630     1 
 7628  7631     1 
 7628  7632     1 
 7629  7636     1 
 7629  7637     1 
 7629  7638     1 
 7630  7633     1 
 7630  7634     1 
 7630  7635     1 
 7631  7633     1 
 7631  7634     1 
 7631  7635     1 
 7633  7636     1 
 7633  7637     1 
 7633  7638     1 
 7634  7636     1 
 7634  7637     1 
 7634  7638     1 
 7639  7656     1 
 7639  7657     1 
 7639  7661     1 
 7640  7644     1 
 7640  7645     1 
 7640  7646     1 
 7640  7648     1 
 7640  7649     1 
 7640  7650     1 
 7640  7652     1 
 7640  7653     1 
 7640  7654     1 
 7640  7658     1 
 7641  7643     1 
 7641  7647     1 
 7641  7651     1 
 7641  7656     1 
 7641  7657     1 
 7641  7661     1 
 7642  7643     1 
 7642  7647     1 
 7642  7651     1 
 7642  7656     1 
 7642  7657     1 
 7642  7661     1 
 7643  7648     1 
 7643  7649     1 
 7643  7650     1 
 7643  7652     1 
 7643  7653     1 
 7643  7654     1 
 7643  7655     1 
 7644  7647     1 
 7644  7651     1 
 7645  7647     1 
 7645  7651     1 
 7646  7647     1 
 7646  7651     1 
 7647  7652     1 
 7647  7653     1 
 7647  7654     1 
 7647  7655     1 
 7648  7651     1 
 7649  7651     1 
 7650  7651     1 
 7651  7655     1 
 7655  7659     1 
 7655  7660     1 
 7655  7662     1 
 7656  7658     1 
 7657  7658     1 
 7658  7664     1 
 7658  7665     1 
 7658  7666     1 
 7659  7663     1 
 7660  7663     1 
 7661  7663     1 
 7662  7667     1 
 7662  7668     1 
 7662  7674     1 
 7663  7669     1 
 7663  7675     1 
 7663  7676     1 
 7663  7677     1 
 7664  7667     1 
 7664  7668     1 
 7664  7674     1 
 7665  7667     1 
 7665  7668     1 
 7665  7674     1 
 7666  7670     1 
 7666  7671     1 
 7666  7678     1 
 7667  7669     1 
 7667  7675     1 
 7667  7676     1 
 7667  7677     1 
 7668  7672     1 
 7668  7673     1 
 7668  7675     1 
 7668  7676     1 
 7668  7677     1 
 7668  7683     1 
 7669  7674     1 
 7669  7684     1 
 7669  7685     1 
 7669  7686     1 
 7670  7672     1 
 7670  7673     1 
 7670  7683     1 
 7671  7687     1 
 7671  7688     1 
 7671  7689     1 
 7672  7684     1 
 7672  7685     1 
 7672  7686     1 
 7673  7684     1 
 7673  7685     1 
 7673  7686     1 
 7674  7679     1 
 7674  7680     1 
 7675  7678     1 
 7676  7678     1 
 7677  7681     1 
 7677  7682     1 
 7677  7730     1 
 7678  7731     1 
 7678  7732     1 
 7678  7733     1 
 7679  7681     1 
 7679  7682     1 
 7679  7730     1 
 7680  7734     1 
 7680  7735     1 
 7680  7736     1 
 7681  7731     1 
 7681  7732     1 
 7681  7733     1 
 7682  7731     1 
 7682  7732     1 
 7682  7733     1 
 7683  7690     1 
 7683  7691     1 
 7683  7692     1 
 7684  7687     1 
 7684  7688     1 
 7684  7689     1 
 7685  7687     1 
 7685  7688     1 
 7685  7689     1 
 7686  7693     1 
 7686  7694     1 
 7686  7695     1 
 7687  7690     1 
 7687  7691     1 
 7687  7692     1 
 7688  7690     1 
 7688  7691     1 
 7688  7692     1 
 7689  7696     1 
 7689  7697     1 
 7689  7698     1 
 7690  7693     1 
 7690  7694     1 
 7690  7695     1 
 7691  7693     1 
 7691  7694     1 
 7691  7695     1 
 7692  7699     1 
 7692  7700     1 
 7692  7701     1 
 7693  7696     1 
 7693  7697     1 
 7693  7698     1 
 7694  7696     1 
 7694  7697     1 
 7694  7698     1 
 7695  7702     1 
 7695  7703     1 
 7696  7699     1 
 7696  7700     1 
 7696  7701     1 
 7697  7699     1 
 7697  7700     1 
 7697  7701     1 
 7698  7704     1 
 7698  7705     1 
 7699  7702     1 
 7699  7703     1 
 7700  7702     1 
 7700  7703     1 
 7701  7706     1 
 7701  7707     1 
 7701  7708     1 
 7702  7704     1 
 7702  7705     1 
 7703  7709     1 
 7703  7710     1 
 7703  7711     1 
 7704  7706     1 
 7704  7707     1 
 7704  7708     1 
 7705  7712     1 
 7705  7713     1 
 7705  7714     1 
 7706  7709     1 
 7706  7710     1 
 7706  7711     1 
 7707  7709     1 
 7707  7710     1 
 7707  7711     1 
 7708  7715     1 
 7708  7716     1 
 7708  7717     1 
 7709  7712     1 
 7709  7713     1 
 7709  7714     1 
 7710  7712     1 
 7710  7713     1 
 7710  7714     1 
 7711  7718     1 
 7711  7719     1 
 7711  7720     1 
 7712  7715     1 
 7712  7716     1 
 7712  7717     1 
 7713  7715     1 
 7713  7716     1 
 7713  7717     1 
 7714  7721     1 
 7714  7722     1 
 7714  7723     1 
 7715  7718     1 
 7715  7719     1 
 7715  7720     1 
 7716  7718     1 
 7716  7719     1 
 7716  7720     1 
 7717  7724     1 
 7717  7725     1 
 7717  7726     1 
 7718  7721     1 
 7718  7722     1 
 7718  7723     1 
 7719  7721     1 
 7719  7722     1 
 7719  7723     1 
 7720  7727     1 
 7720  7728     1 
 7720  7729     1 
 7721  7724     1 
 7721  7725     1 
 7721  7726     1 
 7722  7724     1 
 7722  7725     1 
 7722  7726     1 
 7724  7727     1 
 7724  7728     1 
 7724  7729     1 
 7725  7727     1 
 7725  7728     1 
 7725  7729     1 
 7730  7737     1 
 7730  7738     1 
 7730  7739     1 
 7731  7734     1 
 7731  7735     1 
 7731  7736     1 
 7732  7734     1 
 7732  7735     1 
 7732  7736     1 
 7733  7740     1 
 7733  7741     1 
 7733  7742     1 
 7734  7737     1 
 7734  7738     1 
 7734  7739     1 
 7735  7737     1 
 7735  7738     1 
 7735  7739     1 
 7736  7743     1 
 7736  7744     1 
 7736  7745     1 
 7737  7740     1 
 7737  7741     1 
 7737  7742     1 
 7738  7740     1 
 7738  7741     1 
 7738  7742     1 
 7739  7746     1 
 7739  7747     1 
 7739  7748     1 
 7740  7743     1 
 7740  7744     1 
 7740  7745     1 
 7741  7743     1 
 7741  7744     1 
 7741  7745     1 
 7742  7749     1 
 7742  7750     1 
 7742  7751     1 
 7743  7746     1 
 7743  7747     1 
 7743  7748     1 
 7744  7746     1 
 7744  7747     1 
 7744  7748     1 
 7745  7752     1 
 7745  7753     1 
 7745  7754     1 
 7746  7749     1 
 7746  7750     1 
 7746  7751     1 
 7747  7749     1 
 7747  7750     1 
 7747  7751     1 
 7748  7755     1 
 7748  7756     1 
 7748  7757     1 
 7749  7752     1 
 7749  7753     1 
 7749  7754     1 
 7750  7752     1 
 7750  7753     1 
 7750  7754     1 
 7751  7758     1 
 7751  7759     1 
 7751  7760     1 
 7752  7755     1 
 7752  7756     1 
 7752  7757     1 
 7753  7755     1 
 7753  7756     1 
 7753  7757     1 
 7754  7761     1 
 7754  7762     1 
 7754  7763     1 
 7755  7758     1 
 7755  7759     1 
 7755  7760     1 
 7756  7758     1 
 7756  7759     1 
 7756  7760     1 
 7757  7764     1 
 7757  7765     1 
 7757  7766     1 
 7758  7761     1 
 7758  7762     1 
 7758  7763     1 
 7759  7761     1 
 7759  7762     1 
 7759  7763     1 
 7760  7767     1 
 7760  7768     1 
 7760  7769     1 
 7761  7764     1 
 7761  7765     1 
 7761  7766     1 
 7762  7764     1 
 7762  7765     1 
 7762  7766     1 
 7763  7770     1 
 7763  7771     1 
 7763  7772     1 
 7764  7767     1 
 7764  7768     1 
 7764  7769     1 
 7765  7767     1 
 7765  7768     1 
 7765  7769     1 
 7767  7770     1 
 7767  7771     1 
 7767  7772     1 
 7768  7770     1 
 7768  7771     1 
 7768  7772     1 
 7773  7790     1 
 7773  7791     1 
 7773  7795     1 
 7774  7778     1 
 7774  7779     1 
 7774  7780     1 
 7774  7782     1 
 7774  7783     1 
 7774  7784     1 
 7774  7786     1 
 7774  7787     1 
 7774  7788     1 
 7774  7792     1 
 7775  7777     1 
 7775  7781     1 
 7775  7785     1 
 7775  7790     1 
 7775  7791     1 
 7775  7795     1 
 7776  7777     1 
 7776  7781     1 
 7776  7785     1 
 7776  7790     1 
 7776  7791     1 
 7776  7795     1 
 7777  7782     1 
 7777  7783     1 
 7777  7784     1 
 7777  7786     1 
 7777  7787     1 
 7777  7788     1 
 7777  7789     1 
 7778  7781     1 
 7778  7785     1 
 7779  7781     1 
 7779  7785     1 
 7780  7781     1 
 7780  7785     1 
 7781  7786     1 
 7781  7787     1 
 7781  7788     1 
 7781  7789     1 
 7782  7785     1 
 7783  7785     1 
 7784  7785     1 
 7785  7789     1 
 7789  7793     1 
 7789  7794     1 
 7789  7796     1 
 7790  7792     1 
 7791  7792     1 
 7792  7798     1 
 7792  7799     1 
 7792  7800     1 
 7793  7797     1 
 7794  7797     1 
 7795  7797     1 
 7796  7801     1 
 7796  7802     1 
 7796  7808     1 
 7797  7803     1 
 7797  7809     1 
 7797  7810     1 
 7797  7811     1 
 7798  7801     1 
 7798  7802     1 
 7798  7808     1 
 7799  7801     1 
 7799  7802     1 
 7799  7808     1 
 7800  7804     1 
 7800  7805     1 
 7800  7812     1 
 7801  7803     1 
 7801  7809     1 
 7801  7810     1 
 7801  7811     1 
 7802  7806     1 
 7802  7807     1 
 7802  7809     1 
 7802  7810     1 
 7802  7811     1 
 7802  7817     1 
 7803  7808     1 
 7803  7818     1 
 7803  7819     1 
 7803  7820     1 
 7804  7806     1 
 7804  7807     1 
 7804  7817     1 
 7805  7821     1 
 7805  7822     1 
 7805  7823     1 
 7806  7818     1 
 7806  7819     1 
 7806  7820     1 
 7807  7818     1 
 7807  7819     1 
 7807  7820     1 
 7808  7813     1 
 7808  7814     1 
 7809  7812     1 
 7810  7812     1 
 7811  7815     1 
 7811  7816     1 
 7811  7864     1 
 7812  7865     1 
 7812  7866     1 
 7812  7867     1 
 7813  7815     1 
 7813  7816     1 
 7813  7864     1 
 7814  7868     1 
 7814  7869     1 
 7814  7870     1 
 7815  7865     1 
 7815  7866     1 
 7815  7867     1 
 7816  7865     1 
 7816  7866     1 
 7816  7867     1 
 7817  7824     1 
 7817  7825     1 
 7817  7826     1 
 7818  7821     1 
 7818  7822     1 
 7818  7823     1 
 7819  7821     1 
 7819  7822     1 
 7819  7823     1 
 7820  7827     1 
 7820  7828     1 
 7820  7829     1 
 7821  7824     1 
 7821  7825     1 
 7821  7826     1 
 7822  7824     1 
 7822  7825     1 
 7822  7826     1 
 7823  7830     1 
 7823  7831     1 
 7823  7832     1 
 7824  7827     1 
 7824  7828     1 
 7824  7829     1 
 7825  7827     1 
 7825  7828     1 
 7825  7829     1 
 7826  7833     1 
 7826  7834     1 
 7826  7835     1 
 7827  7830     1 
 7827  7831     1 
 7827  7832     1 
 7828  7830     1 
 7828  7831     1 
 7828  7832     1 
 7829  7836     1 
 7829  7837     1 
 7830  7833     1 
 7830  7834     1 
 7830  7835     1 
 7831  7833     1 
 7831  7834     1 
 7831  7835     1 
 7832  7838     1 
 7832  7839     1 
 7833  7836     1 
 7833  7837     1 
 7834  7836     1 
 7834  7837     1 
 7835  7840     1 
 7835  7841     1 
 7835  7842     1 
 7836  7838     1 
 7836  7839     1 
 7837  7843     1 
 7837  7844     1 
 7837  7845     1 
 7838  7840     1 
 7838  7841     1 
 7838  7842     1 
 7839  7846     1 
 7839  7847     1 
 7839  7848     1 
 7840  7843     1 
 7840  7844     1 
 7840  7845     1 
 7841  7843     1 
 7841  7844     1 
 7841  7845     1 
 7842  7849     1 
 7842  7850     1 
 7842  7851     1 
 7843  7846     1 
 7843  7847     1 
 7843  7848     1 
 7844  7846     1 
 7844  7847     1 
 7844  7848     1 
 7845  7852     1 
 7845  7853     1 
 7845  7854     1 
 7846  7849     1 
 7846  7850     1 
 7846  7851     1 
 7847  7849     1 
 7847  7850     1 
 7847  7851     1 
 7848  7855     1 
 7848  7856     1 
 7848  7857     1 
 7849  7852     1 
 7849  7853     1 
 7849  7854     1 
 7850  7852     1 
 7850  7853     1 
 7850  7854     1 
 7851  7858     1 
 7851  7859     1 
 7851  7860     1 
 7852  7855     1 
 7852  7856     1 
 7852  7857     1 
 7853  7855     1 
 7853  7856     1 
 7853  7857     1 
 7854  7861     1 
 7854  7862     1 
 7854  7863     1 
 7855  7858     1 
 7855  7859     1 
 7855  7860     1 
 7856  7858     1 
 7856  7859     1 
 7856  7860     1 
 7858  7861     1 
 7858  7862     1 
 7858  7863     1 
 7859  7861     1 
 7859  7862     1 
 7859  7863     1 
 7864  7871     1 
 7864  7872     1 
 7864  7873     1 
 7865  7868     1 
 7865  7869     1 
 7865  7870     1 
 7866  7868     1 
 7866  7869     1 
 7866  7870     1 
 7867  7874     1 
 7867  7875     1 
 7867  7876     1 
 7868  7871     1 
 7868  7872     1 
 7868  7873     1 
 7869  7871     1 
 7869  7872     1 
 7869  7873     1 
 7870  7877     1 
 7870  7878     1 
 7870  7879     1 
 7871  7874     1 
 7871  7875     1 
 7871  7876     1 
 7872  7874     1 
 7872  7875     1 
 7872  7876     1 
 7873  7880     1 
 7873  7881     1 
 7873  7882     1 
 7874  7877     1 
 7874  7878     1 
 7874  7879     1 
 7875  7877     1 
 7875  7878     1 
 7875  7879     1 
 7876  7883     1 
 7876  7884     1 
 7876  7885     1 
 7877  7880     1 
 7877  7881     1 
 7877  7882     1 
 7878  7880     1 
 7878  7881     1 
 7878  7882     1 
 7879  7886     1 
 7879  7887     1 
 7879  7888     1 
 7880  7883     1 
 7880  7884     1 
 7880  7885     1 
 7881  7883     1 
 7881  7884     1 
 7881  7885     1 
 7882  7889     1 
 7882  7890     1 
 7882  7891     1 
 7883  7886     1 
 7883  7887     1 
 7883  7888     1 
 7884  7886     1 
 7884  7887     1 
 7884  7888     1 
 7885  7892     1 
 7885  7893     1 
 7885  7894     1 
 7886  7889     1 
 7886  7890     1 
 7886  7891     1 
 7887  7889     1 
 7887  7890     1 
 7887  7891     1 
 7888  7895     1 
 7888  7896     1 
 7888  7897     1 
 7889  7892     1 
 7889  7893     1 
 7889  7894     1 
 7890  7892     1 
 7890  7893     1 
 7890  7894     1 
 7891  7898     1 
 7891  7899     1 
 7891  7900     1 
 7892  7895     1 
 7892  7896     1 
 7892  7897     1 
 7893  7895     1 
 7893  7896     1 
 7893  7897     1 
 7894  7901     1 
 7894  7902     1 
 7894  7903     1 
 7895  7898     1 
 7895  7899     1 
 7895  7900     1 
 7896  7898     1 
 7896  7899     1 
 7896  7900     1 
 7897  7904     1 
 7897  7905     1 
 7897  7906     1 
 7898  7901     1 
 7898  7902     1 
 7898  7903     1 
 7899  7901     1 
 7899  7902     1 
 7899  7903     1 
 7901  7904     1 
 7901  7905     1 
 7901  7906     1 
 7902  7904     1 
 7902  7905     1 
 7902  7906     1 
 7907  7924     1 
 7907  7925     1 
 7907  7929     1 
 7908  7912     1 
 7908  7913     1 
 7908  7914     1 
 7908  7916     1 
 7908  7917     1 
 7908  7918     1 
 7908  7920     1 
 7908  7921     1 
 7908  7922     1 
 7908  7926     1 
 7909  7911     1 
 7909  7915     1 
 7909  7919     1 
 7909  7924     1 
 7909  7925     1 
 7909  7929     1 
 7910  7911     1 
 7910  7915     1 
 7910  7919     1 
 7910  7924     1 
 7910  7925     1 
 7910  7929     1 
 7911  7916     1 
 7911  7917     1 
 7911  7918     1 
 7911  7920     1 
 7911  7921     1 
 7911  7922     1 
 7911  7923     1 
 7912  7915     1 
 7912  7919     1 
 7913  7915     1 
 7913  7919     1 
 7914  7915     1 
 7914  7919     1 
 7915  7920     1 
 7915  7921     1 
 7915  7922     1 
 7915  7923     1 
 7916  7919     1 
 7917  7919     1 
 7918  7919     1 
 7919  7923     1 
 7923  7927     1 
 7923  7928     1 
 7923  7930     1 
 7924  7926     1 
 7925  7926     1 
 7926  7932     1 
 7926  7933     1 
 7926  7934     1 
 7927  7931     1 
 7928  7931     1 
 7929  7931     1 
 7930  7935     1 
 7930  7936     1 
 7930  7942     1 
 7931  7937     1 
 7931  7943     1 
 7931  7944     1 
 7931  7945     1 
 7932  7935     1 
 7932  7936     1 
 7932  7942     1 
 7933  7935     1 
 7933  7936     1 
 7933  7942     1 
 7934  7938     1 
 7934  7939     1 
 7934  7946     1 
 7935  7937     1 
 7935  7943     1 
 7935  7944     1 
 7935  7945     1 
 7936  7940     1 
 7936  7941     1 
 7936  7943     1 
 7936  7944     1 
 7936  7945     1 
 7936  7951     1 
 7937  7942     1 
 7937  7952     1 
 7937  7953     1 
 7937  7954     1 
 7938  7940     1 
 7938  7941     1 
 7938  7951     1 
 7939  7955     1 
 7939  7956     1 
 7939  7957     1 
 7940  7952     1 
 7940  7953     1 
 7940  7954     1 
 7941  7952     1 
 7941  7953     1 
 7941  7954     1 
 7942  7947     1 
 7942  7948     1 
 7943  7946     1 
 7944  7946     1 
 7945  7949     1 
 7945  7950     1 
 7945  7998     1 
 7946  7999     1 
 7946  8000     1 
 7946  8001     1 
 7947  7949     1 
 7947  7950     1 
 7947  7998     1 
 7948  8002     1 
 7948  8003     1 
 7948  8004     1 
 7949  7999     1 
 7949  8000     1 
 7949  8001     1 
 7950  7999     1 
 7950  8000     1 
 7950  8001     1 
 7951  7958     1 
 7951  7959     1 
 7951  7960     1 
 7952  7955     1 
 7952  7956     1 
 7952  7957     1 
 7953  7955     1 
 7953  7956     1 
 7953  7957     1 
 7954  7961     1 
 7954  7962     1 
 7954  7963     1 
 7955  7958     1 
 7955  7959     1 
 7955  7960     1 
 7956  7958     1 
 7956  7959     1 
 7956  7960     1 
 7957  7964     1 
 7957  7965     1 
 7957  7966     1 
 7958  7961     1 
 7958  7962     1 
 7958  7963     1 
 7959  7961     1 
 7959  7962     1 
 7959  7963     1 
 7960  7967     1 
 7960  7968     1 
 7960  7969     1 
 7961  7964     1 
 7961  7965     1 
 7961  7966     1 
 7962  7964     1 
 7962  7965     1 
 7962  7966     1 
 7963  7970     1 
 7963  7971     1 
 7964  7967     1 
 7964  7968     1 
 7964  7969     1 
 7965  7967     1 
 7965  7968     1 
 7965  7969     1 
 7966  7972     1 
 7966  7973     1 
 7967  7970     1 
 7967  7971     1 
 7968  7970     1 
 7968  7971     1 
 7969  7974     1 
 7969  7975     1 
 7969  7976     1 
 7970  7972     1 
 7970  7973     1 
 7971  7977     1 
 7971  7978     1 
 7971  7979     1 
 7972  7974     1 
 7972  7975     1 
 7972  7976     1 
 7973  7980     1 
 7973  7981     1 
 7973  7982     1 
 7974  7977     1 
 7974  7978     1 
 7974  7979     1 
 7975  7977     1 
 7975  7978     1 
 7975  7979     1 
 7976  7983     1 
 7976  7984     1 
 7976  7985     1 
 7977  7980     1 
 7977  7981     1 
 7977  7982     1 
 7978  7980     1 
 7978  7981     1 
 7978  7982     1 
 7979  7986     1 
 7979  7987     1 
 7979  7988     1 
 7980  7983     1 
 7980  7984     1 
 7980  7985     1 
 7981  7983     1 
 7981  7984     1 
 7981  7985     1 
 7982  7989     1 
 7982  7990     1 
 7982  7991     1 
 7983  7986     1 
 7983  7987     1 
 7983  7988     1 
 7984  7986     1 
 7984  7987     1 
 7984  7988     1 
 7985  7992     1 
 7985  7993     1 
 7985  7994     1 
 7986  7989     1 
 7986  7990     1 
 7986  7991     1 
 7987  7989     1 
 7987  7990     1 
 7987  7991     1 
 7988  7995     1 
 7988  7996     1 
 7988  7997     1 
 7989  7992     1 
 7989  7993     1 
 7989  7994     1 
 7990  7992     1 
 7990  7993     1 
 7990  7994     1 
 7992  7995     1 
 7992  7996     1 
 7992  7997     1 
 7993  7995     1 
 7993  7996     1 
 7993  7997     1 
 7998  8005     1 
 7998  8006     1 
 7998  8007     1 
 7999  8002     1 
 7999  8003     1 
 7999  8004     1 
 8000  8002     1 
 8000  8003     1 
 8000  8004     1 
 8001  8008     1 
 8001  8009     1 
 8001  8010     1 
 8002  8005     1 
 8002  8006     1 
 8002  8007     1 
 8003  8005     1 
 8003  8006     1 
 8003  8007     1 
 8004  8011     1 
 8004  8012     1 
 8004  8013     1 
 8005  8008     1 
 8005  8009     1 
 8005  8010     1 
 8006  8008     1 
 8006  8009     1 
 8006  8010     1 
 8007  8014     1 
 8007  8015     1 
 8007  8016     1 
 8008  8011     1 
 8008  8012     1 
 8008  8013     1 
 8009  8011     1 
 8009  8012     1 
 8009  8013     1 
 8010  8017     1 
 8010  8018     1 
 8010  8019     1 
 8011  8014     1 
 8011  8015     1 
 8011  8016     1 
 8012  8014     1 
 8012  8015     1 
 8012  8016     1 
 8013  8020     1 
 8013  8021     1 
 8013  8022     1 
 8014  8017     1 
 8014  8018     1 
 8014  8019     1 
 8015  8017     1 
 8015  8018     1 
 8015  8019     1 
 8016  8023     1 
 8016  8024     1 
 8016  8025     1 
 8017  8020     1 
 8017  8021     1 
 8017  8022     1 
 8018  8020     1 
 8018  8021     1 
 8018  8022     1 
 8019  8026     1 
 8019  8027     1 
 8019  8028     1 
 8020  8023     1 
 8020  8024     1 
 8020  8025     1 
 8021  8023     1 
 8021  8024     1 
 8021  8025     1 
 8022  8029     1 
 8022  8030     1 
 8022  8031     1 
 8023  8026     1 
 8023  8027     1 
 8023  8028     1 
 8024  8026     1 
 8024  8027     1 
 8024  8028     1 
 8025  8032     1 
 8025  8033     1 
 8025  8034     1 
 8026  8029     1 
 8026  8030     1 
 8026  8031     1 
 8027  8029     1 
 8027  8030     1 
 8027  8031     1 
 8028  8035     1 
 8028  8036     1 
 8028  8037     1 
 8029  8032     1 
 8029  8033     1 
 8029  8034     1 
 8030  8032     1 
 8030  8033     1 
 8030  8034     1 
 8031  8038     1 
 8031  8039     1 
 8031  8040     1 
 8032  8035     1 
 8032  8036     1 
 8032  8037     1 
 8033  8035     1 
 8033  8036     1 
 8033  8037     1 
 8035  8038     1 
 8035  8039     1 
 8035  8040     1 
 8036  8038     1 
 8036  8039     1 
 8036  8040     1 
 8041  8058     1 
 8041  8059     1 
 8041  8063     1 
 8042  8046     1 
 8042  8047     1 
 8042  8048     1 
 8042  8050     1 
 8042  8051     1 
 8042  8052     1 
 8042  8054     1 
 8042  8055     1 
 8042  8056     1 
 8042  8060     1 
 8043  8045     1 
 8043  8049     1 
 8043  8053     1 
 8043  8058     1 
 8043  8059     1 
 8043  8063     1 
 8044  8045     1 
 8044  8049     1 
 8044  8053     1 
 8044  8058     1 
 8044  8059     1 
 8044  8063     1 
 8045  8050     1 
 8045  8051     1 
 8045  8052     1 
 8045  8054     1 
 8045  8055     1 
 8045  8056     1 
 8045  8057     1 
 8046  8049     1 
 8046  8053     1 
 8047  8049     1 
 8047  8053     1 
 8048  8049     1 
 8048  8053     1 
 8049  8054     1 
 8049  8055     1 
 8049  8056     1 
 8049  8057     1 
 8050  8053     1 
 8051  8053     1 
 8052  8053     1 
 8053  8057     1 
 8057  8061     1 
 8057  8062     1 
 8057  8064     1 
 8058  8060     1 
 8059  8060     1 
 8060  8066     1 
 8060  8067     1 
 8060  8068     1 
 8061  8065     1 
 8062  8065     1 
 8063  8065     1 
 8064  8069     1 
 8064  8070     1 
 8064  8076     1 
 8065  8071     1 
 8065  8077     1 
 8065  8078     1 
 8065  8079     1 
 8066  8069     1 
 8066  8070     1 
 8066  8076     1 
 8067  8069     1 
 8067  8070     1 
 8067  8076     1 
 8068  8072     1 
 8068  8073     1 
 8068  8080     1 
 8069  8071     1 
 8069  8077     1 
 8069  8078     1 
 8069  8079     1 
 8070  8074     1 
 8070  8075     1 
 8070  8077     1 
 8070  8078     1 
 8070  8079     1 
 8070  8085     1 
 8071  8076     1 
 8071  8086     1 
 8071  8087     1 
 8071  8088     1 
 8072  8074     1 
 8072  8075     1 
 8072  8085     1 
 8073  8089     1 
 8073  8090     1 
 8073  8091     1 
 8074  8086     1 
 8074  8087     1 
 8074  8088     1 
 8075  8086     1 
 8075  8087     1 
 8075  8088     1 
 8076  8081     1 
 8076  8082     1 
 8077  8080     1 
 8078  8080     1 
 8079  8083     1 
 8079  8084     1 
 8079  8132     1 
 8080  8133     1 
 8080  8134     1 
 8080  8135     1 
 8081  8083     1 
 8081  8084     1 
 8081  8132     1 
 8082  8136     1 
 8082  8137     1 
 8082  8138     1 
 8083  8133     1 
 8083  8134     1 
 8083  8135     1 
 8084  8133     1 
 8084  8134     1 
 8084  8135     1 
 8085  8092     1 
 8085  8093     1 
 8085  8094     1 
 8086  8089     1 
 8086  8090     1 
 8086  8091     1 
 8087  8089     1 
 8087  8090     1 
 8087  8091     1 
 8088  8095     1 
 8088  8096     1 
 8088  8097     1 
 8089  8092     1 
 8089  8093     1 
 8089  8094     1 
 8090  8092     1 
 8090  8093     1 
 8090  8094     1 
 8091  8098     1 
 8091  8099     1 
 8091  8100     1 
 8092  8095     1 
 8092  8096     1 
 8092  8097     1 
 8093  8095     1 
 8093  8096     1 
 8093  8097     1 
 8094  8101     1 
 8094  8102     1 
 8094  8103     1 
 8095  8098     1 
 8095  8099     1 
 8095  8100     1 
 8096  8098     1 
 8096  8099     1 
 8096  8100     1 
 8097  8104     1 
 8097  8105     1 
 8098  8101     1 
 8098  8102     1 
 8098  8103     1 
 8099  8101     1 
 8099  8102     1 
 8099  8103     1 
 8100  8106     1 
 8100  8107     1 
 8101  8104     1 
 8101  8105     1 
 8102  8104     1 
 8102  8105     1 
 8103  8108     1 
 8103  8109     1 
 8103  8110     1 
 8104  8106     1 
 8104  8107     1 
 8105  8111     1 
 8105  8112     1 
 8105  8113     1 
 8106  8108     1 
 8106  8109     1 
 8106  8110     1 
 8107  8114     1 
 8107  8115     1 
 8107  8116     1 
 8108  8111     1 
 8108  8112     1 
 8108  8113     1 
 8109  8111     1 
 8109  8112     1 
 8109  8113     1 
 8110  8117     1 
 8110  8118     1 
 8110  8119     1 
 8111  8114     1 
 8111  8115     1 
 8111  8116     1 
 8112  8114     1 
 8112  8115     1 
 8112  8116     1 
 8113  8120     1 
 8113  8121     1 
 8113  8122     1 
 8114  8117     1 
 8114  8118     1 
 8114  8119     1 
 8115  8117     1 
 8115  8118     1 
 8115  8119     1 
 8116  8123     1 
 8116  8124     1 
 8116  8125     1 
 8117  8120     1 
 8117  8121     1 
 8117  8122     1 
 8118  8120     1 
 8118  8121     1 
 8118  8122     1 
 8119  8126     1 
 8119  8127     1 
 8119  8128     1 
 8120  8123     1 
 8120  8124     1 
 8120  8125     1 
 8121  8123     1 
 8121  8124     1 
 8121  8125     1 
 8122  8129     1 
 8122  8130     1 
 8122  8131     1 
 8123  8126     1 
 8123  8127     1 
 8123  8128     1 
 8124  8126     1 
 8124  8127     1 
 8124  8128     1 
 8126  8129     1 
 8126  8130     1 
 8126  8131     1 
 8127  8129     1 
 8127  8130     1 
 8127  8131     1 
 8132  8139     1 
 8132  8140     1 
 8132  8141     1 
 8133  8136     1 
 8133  8137     1 
 8133  8138     1 
 8134  8136     1 
 8134  8137     1 
 8134  8138     1 
 8135  8142     1 
 8135  8143     1 
 8135  8144     1 
 8136  8139     1 
 8136  8140     1 
 8136  8141     1 
 8137  8139     1 
 8137  8140     1 
 8137  8141     1 
 8138  8145     1 
 8138  8146     1 
 8138  8147     1 
 8139  8142     1 
 8139  8143     1 
 8139  8144     1 
 8140  8142     1 
 8140  8143     1 
 8140  8144     1 
 8141  8148     1 
 8141  8149     1 
 8141  8150     1 
 8142  8145     1 
 8142  8146     1 
 8142  8147     1 
 8143  8145     1 
 8143  8146     1 
 8143  8147     1 
 8144  8151     1 
 8144  8152     1 
 8144  8153     1 
 8145  8148     1 
 8145  8149     1 
 8145  8150     1 
 8146  8148     1 
 8146  8149     1 
 8146  8150     1 
 8147  8154     1 
 8147  8155     1 
 8147  8156     1 
 8148  8151     1 
 8148  8152     1 
 8148  8153     1 
 8149  8151     1 
 8149  8152     1 
 8149  8153     1 
 8150  8157     1 
 8150  8158     1 
 8150  8159     1 
 8151  8154     1 
 8151  8155     1 
 8151  8156     1 
 8152  8154     1 
 8152  8155     1 
 8152  8156     1 
 8153  8160     1 
 8153  8161     1 
 8153  8162     1 
 8154  8157     1 
 8154  8158     1 
 8154  8159     1 
 8155  8157     1 
 8155  8158     1 
 8155  8159     1 
 8156  8163     1 
 8156  8164     1 
 8156  8165     1 
 8157  8160     1 
 8157  8161     1 
 8157  8162     1 
 8158  8160     1 
 8158  8161     1 
 8158  8162     1 
 8159  8166     1 
 8159  8167     1 
 8159  8168     1 
 8160  8163     1 
 8160  8164     1 
 8160  8165     1 
 8161  8163     1 
 8161  8164     1 
 8161  8165     1 
 8162  8169     1 
 8162  8170     1 
 8162  8171     1 
 8163  8166     1 
 8163  8167     1 
 8163  8168     1 
 8164  8166     1 
 8164  8167     1 
 8164  8168     1 
 8165  8172     1 
 8165  8173     1 
 8165  8174     1 
 8166  8169     1 
 8166  8170     1 
 8166  8171     1 
 8167  8169     1 
 8167  8170     1 
 8167  8171     1 
 8169  8172     1 
 8169  8173     1 
 8169  8174     1 
 8170  8172     1 
 8170  8173     1 
 8170  8174     1 
 8175  8192     1 
 8175  8193     1 
 8175  8197     1 
 8176  8180     1 
 8176  8181     1 
 8176  8182     1 
 8176  8184     1 
 8176  8185     1 
 8176  8186     1 
 8176  8188     1 
 8176  8189     1 
 8176  8190     1 
 8176  8194     1 
 8177  8179     1 
 8177  8183     1 
 8177  8187     1 
 8177  8192     1 
 8177  8193     1 
 8177  8197     1 
 8178  8179     1 
 8178  8183     1 
 8178  8187     1 
 8178  8192     1 
 8178  8193     1 
 8178  8197     1 
 8179  8184     1 
 8179  8185     1 
 8179  8186     1 
 8179  8188     1 
 8179  8189     1 
 8179  8190     1 
 8179  8191     1 
 8180  8183     1 
 8180  8187     1 
 8181  8183     1 
 8181  8187     1 
 8182  8183     1 
 8182  8187     1 
 8183  8188     1 
 8183  8189     1 
 8183  8190     1 
 8183  8191     1 
 8184  8187     1 
 8185  8187     1 
 8186  8187     1 
 8187  8191     1 
 8191  8195     1 
 8191  8196     1 
 8191  8198     1 
 8192  8194     1 
 8193  8194     1 
 8194  8200     1 
 8194  8201     1 
 8194  8202     1 
 8195  8199     1 
 8196  8199     1 
 8197  8199     1 
 8198  8203     1 
 8198  8204     1 
 8198  8210     1 
 8199  8205     1 
 8199  8211     1 
 8199  8212     1 
 8199  8213     1 
 8200  8203     1 
 8200  8204     1 
 8200  8210     1 
 8201  8203     1 
 8201  8204     1 
 8201  8210     1 
 8202  8206     1 
 8202  8207     1 
 8202  8214     1 
 8203  8205     1 
 8203  8211     1 
 8203  8212     1 
 8203  8213     1 
 8204  8208     1 
 8204  8209     1 
 8204  8211     1 
 8204  8212     1 
 8204  8213     1 
 8204  8219     1 
 8205  8210     1 
 8205  8220     1 
 8205  8221     1 
 8205  8222     1 
 8206  8208     1 
 8206  8209     1 
 8206  8219     1 
 8207  8223     1 
 8207  8224     1 
 8207  8225     1 
 8208  8220     1 
 8208  8221     1 
 8208  8222     1 
 8209  8220     1 
 8209  8221     1 
 8209  8222     1 
 8210  8215     1 
 8210  8216     1 
 8211  8214     1 
 8212  8214     1 
 8213  8217     1 
 8213  8218     1 
 8213  8266     1 
 8214  8267     1 
 8214  8268     1 
 8214  8269     1 
 8215  8217     1 
 8215  8218     1 
 8215  8266     1 
 8216  8270     1 
 8216  8271     1 
 8216  8272     1 
 8217  8267     1 
 8217  8268     1 
 8217  8269     1 
 8218  8267     1 
 8218  8268     1 
 8218  8269     1 
 8219  8226     1 
 8219  8227     1 
 8219  8228     1 
 8220  8223     1 
 8220  8224     1 
 8220  8225     1 
 8221  8223     1 
 8221  8224     1 
 8221  8225     1 
 8222  8229     1 
 8222  8230     1 
 8222  8231     1 
 8223  8226     1 
 8223  8227     1 
 8223  8228     1 
 8224  8226     1 
 8224  8227     1 
 8224  8228     1 
 8225  8232     1 
 8225  8233     1 
 8225  8234     1 
 8226  8229     1 
 8226  8230     1 
 8226  8231     1 
 8227  8229     1 
 8227  8230     1 
 8227  8231     1 
 8228  8235     1 
 8228  8236     1 
 8228  8237     1 
 8229  8232     1 
 8229  8233     1 
 8229  8234     1 
 8230  8232     1 
 8230  8233     1 
 8230  8234     1 
 8231  8238     1 
 8231  8239     1 
 8232  8235     1 
 8232  8236     1 
 8232  8237     1 
 8233  8235     1 
 8233  8236     1 
 8233  8237     1 
 8234  8240     1 
 8234  8241     1 
 8235  8238     1 
 8235  8239     1 
 8236  8238     1 
 8236  8239     1 
 8237  8242     1 
 8237  8243     1 
 8237  8244     1 
 8238  8240     1 
 8238  8241     1 
 8239  8245     1 
 8239  8246     1 
 8239  8247     1 
 8240  8242     1 
 8240  8243     1 
 8240  8244     1 
 8241  8248     1 
 8241  8249     1 
 8241  8250     1 
 8242  8245     1 
 8242  8246     1 
 8242  8247     1 
 8243  8245     1 
 8243  8246     1 
 8243  8247     1 
 8244  8251     1 
 8244  8252     1 
 8244  8253     1 
 8245  8248     1 
 8245  8249     1 
 8245  8250     1 
 8246  8248     1 
 8246  8249     1 
 8246  8250     1 
 8247  8254     1 
 8247  8255     1 
 8247  8256     1 
 8248  8251     1 
 8248  8252     1 
 8248  8253     1 
 8249  8251     1 
 8249  8252     1 
 8249  8253     1 
 8250  8257     1 
 8250  8258     1 
 8250  8259     1 
 8251  8254     1 
 8251  8255     1 
 8251  8256     1 
 8252  8254     1 
 8252  8255     1 
 8252  8256     1 
 8253  8260     1 
 8253  8261     1 
 8253  8262     1 
 8254  8257     1 
 8254  8258     1 
 8254  8259     1 
 8255  8257     1 
 8255  8258     1 
 8255  8259     1 
 8256  8263     1 
 8256  8264     1 
 8256  8265     1 
 8257  8260     1 
 8257  8261     1 
 8257  8262     1 
 8258  8260     1 
 8258  8261     1 
 8258  8262     1 
 8260  8263     1 
 8260  8264     1 
 8260  8265     1 
 8261  8263     1 
 8261  8264     1 
 8261  8265     1 
 8266  8273     1 
 8266  8274     1 
 8266  8275     1 
 8267  8270     1 
 8267  8271     1 
 8267  8272     1 
 8268  8270     1 
 8268  8271     1 
 8268  8272     1 
 8269  8276     1 
 8269  8277     1 
 8269  8278     1 
 8270  8273     1 
 8270  8274     1 
 8270  8275     1 
 8271  8273     1 
 8271  8274     1 
 8271  8275     1 
 8272  8279     1 
 8272  8280     1 
 8272  8281     1 
 8273  8276     1 
 8273  8277     1 
 8273  8278     1 
 8274  8276     1 
 8274  8277     1 
 8274  8278     1 
 8275  8282     1 
 8275  8283     1 
 8275  8284     1 
 8276  8279     1 
 8276  8280     1 
 8276  8281     1 
 8277  8279     1 
 8277  8280     1 
 8277  8281     1 
 8278  8285     1 
 8278  8286     1 
 8278  8287     1 
 8279  8282     1 
 8279  8283     1 
 8279  8284     1 
 8280  8282     1 
 8280  8283     1 
 8280  8284     1 
 8281  8288     1 
 8281  8289     1 
 8281  8290     1 
 8282  8285     1 
 8282  8286     1 
 8282  8287     1 
 8283  8285     1 
 8283  8286     1 
 8283  8287     1 
 8284  8291     1 
 8284  8292     1 
 8284  8293     1 
 8285  8288     1 
 8285  8289     1 
 8285  8290     1 
 8286  8288     1 
 8286  8289     1 
 8286  8290     1 
 8287  8294     1 
 8287  8295     1 
 8287  8296     1 
 8288  8291     1 
 8288  8292     1 
 8288  8293     1 
 8289  8291     1 
 8289  8292     1 
 8289  8293     1 
 8290  8297     1 
 8290  8298     1 
 8290  8299     1 
 8291  8294     1 
 8291  8295     1 
 8291  8296     1 
 8292  8294     1 
 8292  8295     1 
 8292  8296     1 
 8293  8300     1 
 8293  8301     1 
 8293  8302     1 
 8294  8297     1 
 8294  8298     1 
 8294  8299     1 
 8295  8297     1 
 8295  8298     1 
 8295  8299     1 
 8296  8303     1 
 8296  8304     1 
 8296  8305     1 
 8297  8300     1 
 8297  8301     1 
 8297  8302     1 
 8298  8300     1 
 8298  8301     1 
 8298  8302     1 
 8299  8306     1 
 8299  8307     1 
 8299  8308     1 
 8300  8303     1 
 8300  8304     1 
 8300  8305     1 
 8301  8303     1 
 8301  8304     1 
 8301  8305     1 
 8303  8306     1 
 8303  8307     1 
 8303  8308     1 
 8304  8306     1 
 8304  8307     1 
 8304  8308     1 
 8309  8326     1 
 8309  8327     1 
 8309  8331     1 
 8310  8314     1 
 8310  8315     1 
 8310  8316     1 
 8310  8318     1 
 8310  8319     1 
 8310  8320     1 
 8310  8322     1 
 8310  8323     1 
 8310  8324     1 
 8310  8328     1 
 8311  8313     1 
 8311  8317     1 
 8311  8321     1 
 8311  8326     1 
 8311  8327     1 
 8311  8331     1 
 8312  8313     1 
 8312  8317     1 
 8312  8321     1 
 8312  8326     1 
 8312  8327     1 
 8312  8331     1 
 8313  8318     1 
 8313  8319     1 
 8313  8320     1 
 8313  8322     1 
 8313  8323     1 
 8313  8324     1 
 8313  8325     1 
 8314  8317     1 
 8314  8321     1 
 8315  8317     1 
 8315  8321     1 
 8316  8317     1 
 8316  8321     1 
 8317  8322     1 
 8317  8323     1 
 8317  8324     1 
 8317  8325     1 
 8318  8321     1 
 8319  8321     1 
 8320  8321     1 
 8321  8325     1 
 8325  8329     1 
 8325  8330     1 
 8325  8332     1 
 8326  8328     1 
 8327  8328     1 
 8328  8334     1 
 8328  8335     1 
 8328  8336     1 
 8329  8333     1 
 8330  8333     1 
 8331  8333     1 
 8332  8337     1 
 8332  8338     1 
 8332  8344     1 
 8333  8339     1 
 8333  8345     1 
 8333  8346     1 
 8333  8347     1 
 8334  8337     1 
 8334  8338     1 
 8334  8344     1 
 8335  8337     1 
 8335  8338     1 
 8335  8344     1 
 8336  8340     1 
 8336  8341     1 
 8336  8348     1 
 8337  8339     1 
 8337  8345     1 
 8337  8346     1 
 8337  8347     1 
 8338  8342     1 
 8338  8343     1 
 8338  8345     1 
 8338  8346     1 
 8338  8347     1 
 8338  8353     1 
 8339  8344     1 
 8339  8354     1 
 8339  8355     1 
 8339  8356     1 
 8340  8342     1 
 8340  8343     1 
 8340  8353     1 
 8341  8357     1 
 8341  8358     1 
 8341  8359     1 
 8342  8354     1 
 8342  8355     1 
 8342  8356     1 
 8343  8354     1 
 8343  8355     1 
 8343  8356     1 
 8344  8349     1 
 8344  8350     1 
 8345  8348     1 
 8346  8348     1 
 8347  8351     1 
 8347  8352     1 
 8347  8400     1 
 8348  8401     1 
 8348  8402     1 
 8348  8403     1 
 8349  8351     1 
 8349  8352     1 
 8349  8400     1 
 8350  8404     1 
 8350  8405     1 
 8350  8406     1 
 8351  8401     1 
 8351  8402     1 
 8351  8403     1 
 8352  8401     1 
 8352  8402     1 
 8352  8403     1 
 8353  8360     1 
 8353  8361     1 
 8353  8362     1 
 8354  8357     1 
 8354  8358     1 
 8354  8359     1 
 8355  8357     1 
 8355  8358     1 
 8355  8359     1 
 8356  8363     1 
 8356  8364     1 
 8356  8365     1 
 8357  8360     1 
 8357  8361     1 
 8357  8362     1 
 8358  8360     1 
 8358  8361     1 
 8358  8362     1 
 8359  8366     1 
 8359  8367     1 
 8359  8368     1 
 8360  8363     1 
 8360  8364     1 
 8360  8365     1 
 8361  8363     1 
 8361  8364     1 
 8361  8365     1 
 8362  8369     1 
 8362  8370     1 
 8362  8371     1 
 8363  8366     1 
 8363  8367     1 
 8363  8368     1 
 8364  8366     1 
 8364  8367     1 
 8364  8368     1 
 8365  8372     1 
 8365  8373     1 
 8366  8369     1 
 8366  8370     1 
 8366  8371     1 
 8367  8369     1 
 8367  8370     1 
 8367  8371     1 
 8368  8374     1 
 8368  8375     1 
 8369  8372     1 
 8369  8373     1 
 8370  8372     1 
 8370  8373     1 
 8371  8376     1 
 8371  8377     1 
 8371  8378     1 
 8372  8374     1 
 8372  8375     1 
 8373  8379     1 
 8373  8380     1 
 8373  8381     1 
 8374  8376     1 
 8374  8377     1 
 8374  8378     1 
 8375  8382     1 
 8375  8383     1 
 8375  8384     1 
 8376  8379     1 
 8376  8380     1 
 8376  8381     1 
 8377  8379     1 
 8377  8380     1 
 8377  8381     1 
 8378  8385     1 
 8378  8386     1 
 8378  8387     1 
 8379  8382     1 
 8379  8383     1 
 8379  8384     1 
 8380  8382     1 
 8380  8383     1 
 8380  8384     1 
 8381  8388     1 
 8381  8389     1 
 8381  8390     1 
 8382  8385     1 
 8382  8386     1 
 8382  8387     1 
 8383  8385     1 
 8383  8386     1 
 8383  8387     1 
 8384  8391     1 
 8384  8392     1 
 8384  8393     1 
 8385  8388     1 
 8385  8389     1 
 8385  8390     1 
 8386  8388     1 
 8386  8389     1 
 8386  8390     1 
 8387  8394     1 
 8387  8395     1 
 8387  8396     1 
 8388  8391     1 
 8388  8392     1 
 8388  8393     1 
 8389  8391     1 
 8389  8392     1 
 8389  8393     1 
 8390  8397     1 
 8390  8398     1 
 8390  8399     1 
 8391  8394     1 
 8391  8395     1 
 8391  8396     1 
 8392  8394     1 
 8392  8395     1 
 8392  8396     1 
 8394  8397     1 
 8394  8398     1 
 8394  8399     1 
 8395  8397     1 
 8395  8398     1 
 8395  8399     1 
 8400  8407     1 
 8400  8408     1 
 8400  8409     1 
 8401  8404     1 
 8401  8405     1 
 8401  8406     1 
 8402  8404     1 
 8402  8405     1 
 8402  8406     1 
 8403  8410     1 
 8403  8411     1 
 8403  8412     1 
 8404  8407     1 
 8404  8408     1 
 8404  8409     1 
 8405  8407     1 
 8405  8408     1 
 8405  8409     1 
 8406  8413     1 
 8406  8414     1 
 8406  8415     1 
 8407  8410     1 
 8407  8411     1 
 8407  8412     1 
 8408  8410     1 
 8408  8411     1 
 8408  8412     1 
 8409  8416     1 
 8409  8417     1 
 8409  8418     1 
 8410  8413     1 
 8410  8414     1 
 8410  8415     1 
 8411  8413     1 
 8411  8414     1 
 8411  8415     1 
 8412  8419     1 
 8412  8420     1 
 8412  8421     1 
 8413  8416     1 
 8413  8417     1 
 8413  8418     1 
 8414  8416     1 
 8414  8417     1 
 8414  8418     1 
 8415  8422     1 
 8415  8423     1 
 8415  8424     1 
 8416  8419     1 
 8416  8420     1 
 8416  8421     1 
 8417  8419     1 
 8417  8420     1 
 8417  8421     1 
 8418  8425     1 
 8418  8426     1 
 8418  8427     1 
 8419  8422     1 
 8419  8423     1 
 8419  8424     1 
 8420  8422     1 
 8420  8423     1 
 8420  8424     1 
 8421  8428     1 
 8421  8429     1 
 8421  8430     1 
 8422  8425     1 
 8422  8426     1 
 8422  8427     1 
 8423  8425     1 
 8423  8426     1 
 8423  8427     1 
 8424  8431     1 
 8424  8432     1 
 8424  8433     1 
 8425  8428     1 
 8425  8429     1 
 8425  8430     1 
 8426  8428     1 
 8426  8429     1 
 8426  8430     1 
 8427  8434     1 
 8427  8435     1 
 8427  8436     1 
 8428  8431     1 
 8428  8432     1 
 8428  8433     1 
 8429  8431     1 
 8429  8432     1 
 8429  8433     1 
 8430  8437     1 
 8430  8438     1 
 8430  8439     1 
 8431  8434     1 
 8431  8435     1 
 8431  8436     1 
 8432  8434     1 
 8432  8435     1 
 8432  8436     1 
 8433  8440     1 
 8433  8441     1 
 8433  8442     1 
 8434  8437     1 
 8434  8438     1 
 8434  8439     1 
 8435  8437     1 
 8435  8438     1 
 8435  8439     1 
 8437  8440     1 
 8437  8441     1 
 8437  8442     1 
 8438  8440     1 
 8438  8441     1 
 8438  8442     1 
 8443  8460     1 
 8443  8461     1 
 8443  8465     1 
 8444  8448     1 
 8444  8449     1 
 8444  8450     1 
 8444  8452     1 
 8444  8453     1 
 8444  8454     1 
 8444  8456     1 
 8444  8457     1 
 8444  8458     1 
 8444  8462     1 
 8445  8447     1 
 8445  8451     1 
 8445  8455     1 
 8445  8460     1 
 8445  8461     1 
 8445  8465     1 
 8446  8447     1 
 8446  8451     1 
 8446  8455     1 
 8446  8460     1 
 8446  8461     1 
 8446  8465     1 
 8447  8452     1 
 8447  8453     1 
 8447  8454     1 
 8447  8456     1 
 8447  8457     1 
 8447  8458     1 
 8447  8459     1 
 8448  8451     1 
 8448  8455     1 
 8449  8451     1 
 8449  8455     1 
 8450  8451     1 
 8450  8455     1 
 8451  8456     1 
 8451  8457     1 
 8451  8458     1 
 8451  8459     1 
 8452  8455     1 
 8453  8455     1 
 8454  8455     1 
 8455  8459     1 
 8459  8463     1 
 8459  8464     1 
 8459  8466     1 
 8460  8462     1 
 8461  8462     1 
 8462  8468     1 
 8462  8469     1 
 8462  8470     1 
 8463  8467     1 
 8464  8467     1 
 8465  8467     1 
 8466  8471     1 
 8466  8472     1 
 8466  8478     1 
 8467  8473     1 
 8467  8479     1 
 8467  8480     1 
 8467  8481     1 
 8468  8471     1 
 8468  8472     1 
 8468  8478     1 
 8469  8471     1 
 8469  8472     1 
 8469  8478     1 
 8470  8474     1 
 8470  8475     1 
 8470  8482     1 
 8471  8473     1 
 8471  8479     1 
 8471  8480     1 
 8471  8481     1 
 8472  8476     1 
 8472  8477     1 
 8472  8479     1 
 8472  8480     1 
 8472  8481     1 
 8472  8487     1 
 8473  8478     1 
 8473  8488     1 
 8473  8489     1 
 8473  8490     1 
 8474  8476     1 
 8474  8477     1 
 8474  8487     1 
 8475  8491     1 
 8475  8492     1 
 8475  8493     1 
 8476  8488     1 
 8476  8489     1 
 8476  8490     1 
 8477  8488     1 
 8477  8489     1 
 8477  8490     1 
 8478  8483     1 
 8478  8484     1 
 8479  8482     1 
 8480  8482     1 
 8481  8485     1 
 8481  8486     1 
 8481  8534     1 
 8482  8535     1 
 8482  8536     1 
 8482  8537     1 
 8483  8485     1 
 8483  8486     1 
 8483  8534     1 
 8484  8538     1 
 8484  8539     1 
 8484  8540     1 
 8485  8535     1 
 8485  8536     1 
 8485  8537     1 
 8486  8535     1 
 8486  8536     1 
 8486  8537     1 
 8487  8494     1 
 8487  8495     1 
 8487  8496     1 
 8488  8491     1 
 8488  8492     1 
 8488  8493     1 
 8489  8491     1 
 8489  8492     1 
 8489  8493     1 
 8490  8497     1 
 8490  8498     1 
 8490  8499     1 
 8491  8494     1 
 8491  8495     1 
 8491  8496     1 
 8492  8494     1 
 8492  8495     1 
 8492  8496     1 
 8493  8500     1 
 8493  8501     1 
 8493  8502     1 
 8494  8497     1 
 8494  8498     1 
 8494  8499     1 
 8495  8497     1 
 8495  8498     1 
 8495  8499     1 
 8496  8503     1 
 8496  8504     1 
 8496  8505     1 
 8497  8500     1 
 8497  8501     1 
 8497  8502     1 
 8498  8500     1 
 8498  8501     1 
 8498  8502     1 
 8499  8506     1 
 8499  8507     1 
 8500  8503     1 
 8500  8504     1 
 8500  8505     1 
 8501  8503     1 
 8501  8504     1 
 8501  8505     1 
 8502  8508     1 
 8502  8509     1 
 8503  8506     1 
 8503  8507     1 
 8504  8506     1 
 8504  8507     1 
 8505  8510     1 
 8505  8511     1 
 8505  8512     1 
 8506  8508     1 
 8506  8509     1 
 8507  8513     1 
 8507  8514     1 
 8507  8515     1 
 8508  8510     1 
 8508  8511     1 
 8508  8512     1 
 8509  8516     1 
 8509  8517     1 
 8509  8518     1 
 8510  8513     1 
 8510  8514     1 
 8510  8515     1 
 8511  8513     1 
 8511  8514     1 
 8511  8515     1 
 8512  8519     1 
 8512  8520     1 
 8512  8521     1 
 8513  8516     1 
 8513  8517     1 
 8513  8518     1 
 8514  8516     1 
 8514  8517     1 
 8514  8518     1 
 8515  8522     1 
 8515  8523     1 
 8515  8524     1 
 8516  8519     1 
 8516  8520     1 
 8516  8521     1 
 8517  8519     1 
 8517  8520     1 
 8517  8521     1 
 8518  8525     1 
 8518  8526     1 
 8518  8527     1 
 8519  8522     1 
 8519  8523     1 
 8519  8524     1 
 8520  8522     1 
 8520  8523     1 
 8520  8524     1 
 8521  8528     1 
 8521  8529     1 
 8521  8530     1 
 8522  8525     1 
 8522  8526     1 
 8522  8527     1 
 8523  8525     1 
 8523  8526     1 
 8523  8527     1 
 8524  8531     1 
 8524  8532     1 
 8524  8533     1 
 8525  8528     1 
 8525  8529     1 
 8525  8530     1 
 8526  8528     1 
 8526  8529     1 
 8526  8530     1 
 8528  8531     1 
 8528  8532     1 
 8528  8533     1 
 8529  8531     1 
 8529  8532     1 
 8529  8533     1 
 8534  8541     1 
 8534  8542     1 
 8534  8543     1 
 8535  8538     1 
 8535  8539     1 
 8535  8540     1 
 8536  8538     1 
 8536  8539     1 
 8536  8540     1 
 8537  8544     1 
 8537  8545     1 
 8537  8546     1 
 8538  8541     1 
 8538  8542     1 
 8538  8543     1 
 8539  8541     1 
 8539  8542     1 
 8539  8543     1 
 8540  8547     1 
 8540  8548     1 
 8540  8549     1 
 8541  8544     1 
 8541  8545     1 
 8541  8546     1 
 8542  8544     1 
 8542  8545     1 
 8542  8546     1 
 8543  8550     1 
 8543  8551     1 
 8543  8552     1 
 8544  8547     1 
 8544  8548     1 
 8544  8549     1 
 8545  8547     1 
 8545  8548     1 
 8545  8549     1 
 8546  8553     1 
 8546  8554     1 
 8546  8555     1 
 8547  8550     1 
 8547  8551     1 
 8547  8552     1 
 8548  8550     1 
 8548  8551     1 
 8548  8552     1 
 8549  8556     1 
 8549  8557     1 
 8549  8558     1 
 8550  8553     1 
 8550  8554     1 
 8550  8555     1 
 8551  8553     1 
 8551  8554     1 
 8551  8555     1 
 8552  8559     1 
 8552  8560     1 
 8552  8561     1 
 8553  8556     1 
 8553  8557     1 
 8553  8558     1 
 8554  8556     1 
 8554  8557     1 
 8554  8558     1 
 8555  8562     1 
 8555  8563     1 
 8555  8564     1 
 8556  8559     1 
 8556  8560     1 
 8556  8561     1 
 8557  8559     1 
 8557  8560     1 
 8557  8561     1 
 8558  8565     1 
 8558  8566     1 
 8558  8567     1 
 8559  8562     1 
 8559  8563     1 
 8559  8564     1 
 8560  8562     1 
 8560  8563     1 
 8560  8564     1 
 8561  8568     1 
 8561  8569     1 
 8561  8570     1 
 8562  8565     1 
 8562  8566     1 
 8562  8567     1 
 8563  8565     1 
 8563  8566     1 
 8563  8567     1 
 8564  8571     1 
 8564  8572     1 
 8564  8573     1 
 8565  8568     1 
 8565  8569     1 
 8565  8570     1 
 8566  8568     1 
 8566  8569     1 
 8566  8570     1 
 8567  8574     1 
 8567  8575     1 
 8567  8576     1 
 8568  8571     1 
 8568  8572     1 
 8568  8573     1 
 8569  8571     1 
 8569  8572     1 
 8569  8573     1 
 8571  8574     1 
 8571  8575     1 
 8571  8576     1 
 8572  8574     1 
 8572  8575     1 
 8572  8576     1 
 8577  8594     1 
 8577  8595     1 
 8577  8599     1 
 8578  8582     1 
 8578  8583     1 
 8578  8584     1 
 8578  8586     1 
 8578  8587     1 
 8578  8588     1 
 8578  8590     1 
 8578  8591     1 
 8578  8592     1 
 8578  8596     1 
 8579  8581     1 
 8579  8585     1 
 8579  8589     1 
 8579  8594     1 
 8579  8595     1 
 8579  8599     1 
 8580  8581     1 
 8580  8585     1 
 8580  8589     1 
 8580  8594     1 
 8580  8595     1 
 8580  8599     1 
 8581  8586     1 
 8581  8587     1 
 8581  8588     1 
 8581  8590     1 
 8581  8591     1 
 8581  8592     1 
 8581  8593     1 
 8582  8585     1 
 8582  8589     1 
 8583  8585     1 
 8583  8589     1 
 8584  8585     1 
 8584  8589     1 
 8585  8590     1 
 8585  8591     1 
 8585  8592     1 
 8585  8593     1 
 8586  8589     1 
 8587  8589     1 
 8588  8589     1 
 8589  8593     1 
 8593  8597     1 
 8593  8598     1 
 8593  8600     1 
 8594  8596     1 
 8595  8596     1 
 8596  8602     1 
 8596  8603     1 
 8596  8604     1 
 8597  8601     1 
 8598  8601     1 
 8599  8601     1 
 8600  8605     1 
 8600  8606     1 
 8600  8612     1 
 8601  8607     1 
 8601  8613     1 
 8601  8614     1 
 8601  8615     1 
 8602  8605     1 
 8602  8606     1 
 8602  8612     1 
 8603  8605     1 
 8603  8606     1 
 8603  8612     1 
 8604  8608     1 
 8604  8609     1 
 8604  8616     1 
 8605  8607     1 
 8605  8613     1 
 8605  8614     1 
 8605  8615     1 
 8606  8610     1 
 8606  8611     1 
 8606  8613     1 
 8606  8614     1 
 8606  8615     1 
 8606  8621     1 
 8607  8612     1 
 8607  8622     1 
 8607  8623     1 
 8607  8624     1 
 8608  8610     1 
 8608  8611     1 
 8608  8621     1 
 8609  8625     1 
 8609  8626     1 
 8609  8627     1 
 8610  8622     1 
 8610  8623     1 
 8610  8624     1 
 8611  8622     1 
 8611  8623     1 
 8611  8624     1 
 8612  8617     1 
 8612  8618     1 
 8613  8616     1 
 8614  8616     1 
 8615  8619     1 
 8615  8620     1 
 8615  8668     1 
 8616  8669     1 
 8616  8670     1 
 8616  8671     1 
 8617  8619     1 
 8617  8620     1 
 8617  8668     1 
 8618  8672     1 
 8618  8673     1 
 8618  8674     1 
 8619  8669     1 
 8619  8670     1 
 8619  8671     1 
 8620  8669     1 
 8620  8670     1 
 8620  8671     1 
 8621  8628     1 
 8621  8629     1 
 8621  8630     1 
 8622  8625     1 
 8622  8626     1 
 8622  8627     1 
 8623  8625     1 
 8623  8626     1 
 8623  8627     1 
 8624  8631     1 
 8624  8632     1 
 8624  8633     1 
 8625  8628     1 
 8625  8629     1 
 8625  8630     1 
 8626  8628     1 
 8626  8629     1 
 8626  8630     1 
 8627  8634     1 
 8627  8635     1 
 8627  8636     1 
 8628  8631     1 
 8628  8632     1 
 8628  8633     1 
 8629  8631     1 
 8629  8632     1 
 8629  8633     1 
 8630  8637     1 
 8630  8638     1 
 8630  8639     1 
 8631  8634     1 
 8631  8635     1 
 8631  8636     1 
 8632  8634     1 
 8632  8635     1 
 8632  8636     1 
 8633  8640     1 
 8633  8641     1 
 8634  8637     1 
 8634  8638     1 
 8634  8639     1 
 8635  8637     1 
 8635  8638     1 
 8635  8639     1 
 8636  8642     1 
 8636  8643     1 
 8637  8640     1 
 8637  8641     1 
 8638  8640     1 
 8638  8641     1 
 8639  8644     1 
 8639  8645     1 
 8639  8646     1 
 8640  8642     1 
 8640  8643     1 
 8641  8647     1 
 8641  8648     1 
 8641  8649     1 
 8642  8644     1 
 8642  8645     1 
 8642  8646     1 
 8643  8650     1 
 8643  8651     1 
 8643  8652     1 
 8644  8647     1 
 8644  8648     1 
 8644  8649     1 
 8645  8647     1 
 8645  8648     1 
 8645  8649     1 
 8646  8653     1 
 8646  8654     1 
 8646  8655     1 
 8647  8650     1 
 8647  8651     1 
 8647  8652     1 
 8648  8650     1 
 8648  8651     1 
 8648  8652     1 
 8649  8656     1 
 8649  8657     1 
 8649  8658     1 
 8650  8653     1 
 8650  8654     1 
 8650  8655     1 
 8651  8653     1 
 8651  8654     1 
 8651  8655     1 
 8652  8659     1 
 8652  8660     1 
 8652  8661     1 
 8653  8656     1 
 8653  8657     1 
 8653  8658     1 
 8654  8656     1 
 8654  8657     1 
 8654  8658     1 
 8655  8662     1 
 8655  8663     1 
 8655  8664     1 
 8656  8659     1 
 8656  8660     1 
 8656  8661     1 
 8657  8659     1 
 8657  8660     1 
 8657  8661     1 
 8658  8665     1 
 8658  8666     1 
 8658  8667     1 
 8659  8662     1 
 8659  8663     1 
 8659  8664     1 
 8660  8662     1 
 8660  8663     1 
 8660  8664     1 
 8662  8665     1 
 8662  8666     1 
 8662  8667     1 
 8663  8665     1 
 8663  8666     1 
 8663  8667     1 
 8668  8675     1 
 8668  8676     1 
 8668  8677     1 
 8669  8672     1 
 8669  8673     1 
 8669  8674     1 
 8670  8672     1 
 8670  8673     1 
 8670  8674     1 
 8671  8678     1 
 8671  8679     1 
 8671  8680     1 
 8672  8675     1 
 8672  8676     1 
 8672  8677     1 
 8673  8675     1 
 8673  8676     1 
 8673  8677     1 
 8674  8681     1 
 8674  8682     1 
 8674  8683     1 
 8675  8678     1 
 8675  8679     1 
 8675  8680     1 
 8676  8678     1 
 8676  8679     1 
 8676  8680     1 
 8677  8684     1 
 8677  8685     1 
 8677  8686     1 
 8678  8681     1 
 8678  8682     1 
 8678  8683     1 
 8679  8681     1 
 8679  8682     1 
 8679  8683     1 
 8680  8687     1 
 8680  8688     1 
 8680  8689     1 
 8681  8684     1 
 8681  8685     1 
 8681  8686     1 
 8682  8684     1 
 8682  8685     1 
 8682  8686     1 
 8683  8690     1 
 8683  8691     1 
 8683  8692     1 
 8684  8687     1 
 8684  8688     1 
 8684  8689     1 
 8685  8687     1 
 8685  8688     1 
 8685  8689     1 
 8686  8693     1 
 8686  8694     1 
 8686  8695     1 
 8687  8690     1 
 8687  8691     1 
 8687  8692     1 
 8688  8690     1 
 8688  8691     1 
 8688  8692     1 
 8689  8696     1 
 8689  8697     1 
 8689  8698     1 
 8690  8693     1 
 8690  8694     1 
 8690  8695     1 
 8691  8693     1 
 8691  8694     1 
 8691  8695     1 
 8692  8699     1 
 8692  8700     1 
 8692  8701     1 
 8693  8696     1 
 8693  8697     1 
 8693  8698     1 
 8694  8696     1 
 8694  8697     1 
 8694  8698     1 
 8695  8702     1 
 8695  8703     1 
 8695  8704     1 
 8696  8699     1 
 8696  8700     1 
 8696  8701     1 
 8697  8699     1 
 8697  8700     1 
 8697  8701     1 
 8698  8705     1 
 8698  8706     1 
 8698  8707     1 
 8699  8702     1 
 8699  8703     1 
 8699  8704     1 
 8700  8702     1 
 8700  8703     1 
 8700  8704     1 
 8701  8708     1 
 8701  8709     1 
 8701  8710     1 
 8702  8705     1 
 8702  8706     1 
 8702  8707     1 
 8703  8705     1 
 8703  8706     1 
 8703  8707     1 
 8705  8708     1 
 8705  8709     1 
 8705  8710     1 
 8706  8708     1 
 8706  8709     1 
 8706  8710     1 
 8711  8728     1 
 8711  8729     1 
 8711  8733     1 
 8712  8716     1 
 8712  8717     1 
 8712  8718     1 
 8712  8720     1 
 8712  8721     1 
 8712  8722     1 
 8712  8724     1 
 8712  8725     1 
 8712  8726     1 
 8712  8730     1 
 8713  8715     1 
 8713  8719     1 
 8713  8723     1 
 8713  8728     1 
 8713  8729     1 
 8713  8733     1 
 8714  8715     1 
 8714  8719     1 
 8714  8723     1 
 8714  8728     1 
 8714  8729     1 
 8714  8733     1 
 8715  8720     1 
 8715  8721     1 
 8715  8722     1 
 8715  8724     1 
 8715  8725     1 
 8715  8726     1 
 8715  8727     1 
 8716  8719     1 
 8716  8723     1 
 8717  8719     1 
 8717  8723     1 
 8718  8719     1 
 8718  8723     1 
 8719  8724     1 
 8719  8725     1 
 8719  8726     1 
 8719  8727     1 
 8720  8723     1 
 8721  8723     1 
 8722  8723     1 
 8723  8727     1 
 8727  8731     1 
 8727  8732     1 
 8727  8734     1 
 8728  8730     1 
 8729  8730     1 
 8730  8736     1 
 8730  8737     1 
 8730  8738     1 
 8731  8735     1 
 8732  8735     1 
 8733  8735     1 
 8734  8739     1 
 8734  8740     1 
 8734  8746     1 
 8735  8741     1 
 8735  8747     1 
 8735  8748     1 
 8735  8749     1 
 8736  8739     1 
 8736  8740     1 
 8736  8746     1 
 8737  8739     1 
 8737  8740     1 
 8737  8746     1 
 8738  8742     1 
 8738  8743     1 
 8738  8750     1 
 8739  8741     1 
 8739  8747     1 
 8739  8748     1 
 8739  8749     1 
 8740  8744     1 
 8740  8745     1 
 8740  8747     1 
 8740  8748     1 
 8740  8749     1 
 8740  8755     1 
 8741  8746     1 
 8741  8756     1 
 8741  8757     1 
 8741  8758     1 
 8742  8744     1 
 8742  8745     1 
 8742  8755     1 
 8743  8759     1 
 8743  8760     1 
 8743  8761     1 
 8744  8756     1 
 8744  8757     1 
 8744  8758     1 
 8745  8756     1 
 8745  8757     1 
 8745  8758     1 
 8746  8751     1 
 8746  8752     1 
 8747  8750     1 
 8748  8750     1 
 8749  8753     1 
 8749  8754     1 
 8749  8802     1 
 8750  8803     1 
 8750  8804     1 
 8750  8805     1 
 8751  8753     1 
 8751  8754     1 
 8751  8802     1 
 8752  8806     1 
 8752  8807     1 
 8752  8808     1 
 8753  8803     1 
 8753  8804     1 
 8753  8805     1 
 8754  8803     1 
 8754  8804     1 
 8754  8805     1 
 8755  8762     1 
 8755  8763     1 
 8755  8764     1 
 8756  8759     1 
 8756  8760     1 
 8756  8761     1 
 8757  8759     1 
 8757  8760     1 
 8757  8761     1 
 8758  8765     1 
 8758  8766     1 
 8758  8767     1 
 8759  8762     1 
 8759  8763     1 
 8759  8764     1 
 8760  8762     1 
 8760  8763     1 
 8760  8764     1 
 8761  8768     1 
 8761  8769     1 
 8761  8770     1 
 8762  8765     1 
 8762  8766     1 
 8762  8767     1 
 8763  8765     1 
 8763  8766     1 
 8763  8767     1 
 8764  8771     1 
 8764  8772     1 
 8764  8773     1 
 8765  8768     1 
 8765  8769     1 
 8765  8770     1 
 8766  8768     1 
 8766  8769     1 
 8766  8770     1 
 8767  8774     1 
 8767  8775     1 
 8768  8771     1 
 8768  8772     1 
 8768  8773     1 
 8769  8771     1 
 8769  8772     1 
 8769  8773     1 
 8770  8776     1 
 8770  8777     1 
 8771  8774     1 
 8771  8775     1 
 8772  8774     1 
 8772  8775     1 
 8773  8778     1 
 8773  8779     1 
 8773  8780     1 
 8774  8776     1 
 8774  8777     1 
 8775  8781     1 
 8775  8782     1 
 8775  8783     1 
 8776  8778     1 
 8776  8779     1 
 8776  8780     1 
 8777  8784     1 
 8777  8785     1 
 8777  8786     1 
 8778  8781     1 
 8778  8782     1 
 8778  8783     1 
 8779  8781     1 
 8779  8782     1 
 8779  8783     1 
 8780  8787     1 
 8780  8788     1 
 8780  8789     1 
 8781  8784     1 
 8781  8785     1 
 8781  8786     1 
 8782  8784     1 
 8782  8785     1 
 8782  8786     1 
 8783  8790     1 
 8783  8791     1 
 8783  8792     1 
 8784  8787     1 
 8784  8788     1 
 8784  8789     1 
 8785  8787     1 
 8785  8788     1 
 8785  8789     1 
 8786  8793     1 
 8786  8794     1 
 8786  8795     1 
 8787  8790     1 
 8787  8791     1 
 8787  8792     1 
 8788  8790     1 
 8788  8791     1 
 8788  8792     1 
 8789  8796     1 
 8789  8797     1 
 8789  8798     1 
 8790  8793     1 
 8790  8794     1 
 8790  8795     1 
 8791  8793     1 
 8791  8794     1 
 8791  8795     1 
 8792  8799     1 
 8792  8800     1 
 8792  8801     1 
 8793  8796     1 
 8793  8797     1 
 8793  8798     1 
 8794  8796     1 
 8794  8797     1 
 8794  8798     1 
 8796  8799     1 
 8796  8800     1 
 8796  8801     1 
 8797  8799     1 
 8797  8800     1 
 8797  8801     1 
 8802  8809     1 
 8802  8810     1 
 8802  8811     1 
 8803  8806     1 
 8803  8807     1 
 8803  8808     1 
 8804  8806     1 
 8804  8807     1 
 8804  8808     1 
 8805  8812     1 
 8805  8813     1 
 8805  8814     1 
 8806  8809     1 
 8806  8810     1 
 8806  8811     1 
 8807  8809     1 
 8807  8810     1 
 8807  8811     1 
 8808  8815     1 
 8808  8816     1 
 8808  8817     1 
 8809  8812     1 
 8809  8813     1 
 8809  8814     1 
 8810  8812     1 
 8810  8813     1 
 8810  8814     1 
 8811  8818     1 
 8811  8819     1 
 8811  8820     1 
 8812  8815     1 
 8812  8816     1 
 8812  8817     1 
 8813  8815     1 
 8813  8816     1 
 8813  8817     1 
 8814  8821     1 
 8814  8822     1 
 8814  8823     1 
 8815  8818     1 
 8815  8819     1 
 8815  8820     1 
 8816  8818     1 
 8816  8819     1 
 8816  8820     1 
 8817  8824     1 
 8817  8825     1 
 8817  8826     1 
 8818  8821     1 
 8818  8822     1 
 8818  8823     1 
 8819  8821     1 
 8819  8822     1 
 8819  8823     1 
 8820  8827     1 
 8820  8828     1 
 8820  8829     1 
 8821  8824     1 
 8821  8825     1 
 8821  8826     1 
 8822  8824     1 
 8822  8825     1 
 8822  8826     1 
 8823  8830     1 
 8823  8831     1 
 8823  8832     1 
 8824  8827     1 
 8824  8828     1 
 8824  8829     1 
 8825  8827     1 
 8825  8828     1 
 8825  8829     1 
 8826  8833     1 
 8826  8834     1 
 8826  8835     1 
 8827  8830     1 
 8827  8831     1 
 8827  8832     1 
 8828  8830     1 
 8828  8831     1 
 8828  8832     1 
 8829  8836     1 
 8829  8837     1 
 8829  8838     1 
 8830  8833     1 
 8830  8834     1 
 8830  8835     1 
 8831  8833     1 
 8831  8834     1 
 8831  8835     1 
 8832  8839     1 
 8832  8840     1 
 8832  8841     1 
 8833  8836     1 
 8833  8837     1 
 8833  8838     1 
 8834  8836     1 
 8834  8837     1 
 8834  8838     1 
 8835  8842     1 
 8835  8843     1 
 8835  8844     1 
 8836  8839     1 
 8836  8840     1 
 8836  8841     1 
 8837  8839     1 
 8837  8840     1 
 8837  8841     1 
 8839  8842     1 
 8839  8843     1 
 8839  8844     1 
 8840  8842     1 
 8840  8843     1 
 8840  8844     1 
 8845  8862     1 
 8845  8863     1 
 8845  8867     1 
 8846  8850     1 
 8846  8851     1 
 8846  8852     1 
 8846  8854     1 
 8846  8855     1 
 8846  8856     1 
 8846  8858     1 
 8846  8859     1 
 8846  8860     1 
 8846  8864     1 
 8847  8849     1 
 8847  8853     1 
 8847  8857     1 
 8847  8862     1 
 8847  8863     1 
 8847  8867     1 
 8848  8849     1 
 8848  8853     1 
 8848  8857     1 
 8848  8862     1 
 8848  8863     1 
 8848  8867     1 
 8849  8854     1 
 8849  8855     1 
 8849  8856     1 
 8849  8858     1 
 8849  8859     1 
 8849  8860     1 
 8849  8861     1 
 8850  8853     1 
 8850  8857     1 
 8851  8853     1 
 8851  8857     1 
 8852  8853     1 
 8852  8857     1 
 8853  8858     1 
 8853  8859     1 
 8853  8860     1 
 8853  8861     1 
 8854  8857     1 
 8855  8857     1 
 8856  8857     1 
 8857  8861     1 
 8861  8865     1 
 8861  8866     1 
 8861  8868     1 
 8862  8864     1 
 8863  8864     1 
 8864  8870     1 
 8864  8871     1 
 8864  8872     1 
 8865  8869     1 
 8866  8869     1 
 8867  8869     1 
 8868  8873     1 
 8868  8874     1 
 8868  8880     1 
 8869  8875     1 
 8869  8881     1 
 8869  8882     1 
 8869  8883     1 
 8870  8873     1 
 8870  8874     1 
 8870  8880     1 
 8871  8873     1 
 8871  8874     1 
 8871  8880     1 
 8872  8876     1 
 8872  8877     1 
 8872  8884     1 
 8873  8875     1 
 8873  8881     1 
 8873  8882     1 
 8873  8883     1 
 8874  8878     1 
 8874  8879     1 
 8874  8881     1 
 8874  8882     1 
 8874  8883     1 
 8874  8889     1 
 8875  8880     1 
 8875  8890     1 
 8875  8891     1 
 8875  8892     1 
 8876  8878     1 
 8876  8879     1 
 8876  8889     1 
 8877  8893     1 
 8877  8894     1 
 8877  8895     1 
 8878  8890     1 
 8878  8891     1 
 8878  8892     1 
 8879  8890     1 
 8879  8891     1 
 8879  8892     1 
 8880  8885     1 
 8880  8886     1 
 8881  8884     1 
 8882  8884     1 
 8883  8887     1 
 8883  8888     1 
 8883  8936     1 
 8884  8937     1 
 8884  8938     1 
 8884  8939     1 
 8885  8887     1 
 8885  8888     1 
 8885  8936     1 
 8886  8940     1 
 8886  8941     1 
 8886  8942     1 
 8887  8937     1 
 8887  8938     1 
 8887  8939     1 
 8888  8937     1 
 8888  8938     1 
 8888  8939     1 
 8889  8896     1 
 8889  8897     1 
 8889  8898     1 
 8890  8893     1 
 8890  8894     1 
 8890  8895     1 
 8891  8893     1 
 8891  8894     1 
 8891  8895     1 
 8892  8899     1 
 8892  8900     1 
 8892  8901     1 
 8893  8896     1 
 8893  8897     1 
 8893  8898     1 
 8894  8896     1 
 8894  8897     1 
 8894  8898     1 
 8895  8902     1 
 8895  8903     1 
 8895  8904     1 
 8896  8899     1 
 8896  8900     1 
 8896  8901     1 
 8897  8899     1 
 8897  8900     1 
 8897  8901     1 
 8898  8905     1 
 8898  8906     1 
 8898  8907     1 
 8899  8902     1 
 8899  8903     1 
 8899  8904     1 
 8900  8902     1 
 8900  8903     1 
 8900  8904     1 
 8901  8908     1 
 8901  8909     1 
 8902  8905     1 
 8902  8906     1 
 8902  8907     1 
 8903  8905     1 
 8903  8906     1 
 8903  8907     1 
 8904  8910     1 
 8904  8911     1 
 8905  8908     1 
 8905  8909     1 
 8906  8908     1 
 8906  8909     1 
 8907  8912     1 
 8907  8913     1 
 8907  8914     1 
 8908  8910     1 
 8908  8911     1 
 8909  8915     1 
 8909  8916     1 
 8909  8917     1 
 8910  8912     1 
 8910  8913     1 
 8910  8914     1 
 8911  8918     1 
 8911  8919     1 
 8911  8920     1 
 8912  8915     1 
 8912  8916     1 
 8912  8917     1 
 8913  8915     1 
 8913  8916     1 
 8913  8917     1 
 8914  8921     1 
 8914  8922     1 
 8914  8923     1 
 8915  8918     1 
 8915  8919     1 
 8915  8920     1 
 8916  8918     1 
 8916  8919     1 
 8916  8920     1 
 8917  8924     1 
 8917  8925     1 
 8917  8926     1 
 8918  8921     1 
 8918  8922     1 
 8918  8923     1 
 8919  8921     1 
 8919  8922     1 
 8919  8923     1 
 8920  8927     1 
 8920  8928     1 
 8920  8929     1 
 8921  8924     1 
 8921  8925     1 
 8921  8926     1 
 8922  8924     1 
 8922  8925     1 
 8922  8926     1 
 8923  8930     1 
 8923  8931     1 
 8923  8932     1 
 8924  8927     1 
 8924  8928     1 
 8924  8929     1 
 8925  8927     1 
 8925  8928     1 
 8925  8929     1 
 8926  8933     1 
 8926  8934     1 
 8926  8935     1 
 8927  8930     1 
 8927  8931     1 
 8927  8932     1 
 8928  8930     1 
 8928  8931     1 
 8928  8932     1 
 8930  8933     1 
 8930  8934     1 
 8930  8935     1 
 8931  8933     1 
 8931  8934     1 
 8931  8935     1 
 8936  8943     1 
 8936  8944     1 
 8936  8945     1 
 8937  8940     1 
 8937  8941     1 
 8937  8942     1 
 8938  8940     1 
 8938  8941     1 
 8938  8942     1 
 8939  8946     1 
 8939  8947     1 
 8939  8948     1 
 8940  8943     1 
 8940  8944     1 
 8940  8945     1 
 8941  8943     1 
 8941  8944     1 
 8941  8945     1 
 8942  8949     1 
 8942  8950     1 
 8942  8951     1 
 8943  8946     1 
 8943  8947     1 
 8943  8948     1 
 8944  8946     1 
 8944  8947     1 
 8944  8948     1 
 8945  8952     1 
 8945  8953     1 
 8945  8954     1 
 8946  8949     1 
 8946  8950     1 
 8946  8951     1 
 8947  8949     1 
 8947  8950     1 
 8947  8951     1 
 8948  8955     1 
 8948  8956     1 
 8948  8957     1 
 8949  8952     1 
 8949  8953     1 
 8949  8954     1 
 8950  8952     1 
 8950  8953     1 
 8950  8954     1 
 8951  8958     1 
 8951  8959     1 
 8951  8960     1 
 8952  8955     1 
 8952  8956     1 
 8952  8957     1 
 8953  8955     1 
 8953  8956     1 
 8953  8957     1 
 8954  8961     1 
 8954  8962     1 
 8954  8963     1 
 8955  8958     1 
 8955  8959     1 
 8955  8960     1 
 8956  8958     1 
 8956  8959     1 
 8956  8960     1 
 8957  8964     1 
 8957  8965     1 
 8957  8966     1 
 8958  8961     1 
 8958  8962     1 
 8958  8963     1 
 8959  8961     1 
 8959  8962     1 
 8959  8963     1 
 8960  8967     1 
 8960  8968     1 
 8960  8969     1 
 8961  8964     1 
 8961  8965     1 
 8961  8966     1 
 8962  8964     1 
 8962  8965     1 
 8962  8966     1 
 8963  8970     1 
 8963  8971     1 
 8963  8972     1 
 8964  8967     1 
 8964  8968     1 
 8964  8969     1 
 8965  8967     1 
 8965  8968     1 
 8965  8969     1 
 8966  8973     1 
 8966  8974     1 
 8966  8975     1 
 8967  8970     1 
 8967  8971     1 
 8967  8972     1 
 8968  8970     1 
 8968  8971     1 
 8968  8972     1 
 8969  8976     1 
 8969  8977     1 
 8969  8978     1 
 8970  8973     1 
 8970  8974     1 
 8970  8975     1 
 8971  8973     1 
 8971  8974     1 
 8971  8975     1 
 8973  8976     1 
 8973  8977     1 
 8973  8978     1 
 8974  8976     1 
 8974  8977     1 
 8974  8978     1 
 8979  8996     1 
 8979  8997     1 
 8979  9001     1 
 8980  8984     1 
 8980  8985     1 
 8980  8986     1 
 8980  8988     1 
 8980  8989     1 
 8980  8990     1 
 8980  8992     1 
 8980  8993     1 
 8980  8994     1 
 8980  8998     1 
 8981  8983     1 
 8981  8987     1 
 8981  8991     1 
 8981  8996     1 
 8981  8997     1 
 8981  9001     1 
 8982  8983     1 
 8982  8987     1 
 8982  8991     1 
 8982  8996     1 
 8982  8997     1 
 8982  9001     1 
 8983  8988     1 
 8983  8989     1 
 8983  8990     1 
 8983  8992     1 
 8983  8993     1 
 8983  8994     1 
 8983  8995     1 
 8984  8987     1 
 8984  8991     1 
 8985  8987     1 
 8985  8991     1 
 8986  8987     1 
 8986  8991     1 
 8987  8992     1 
 8987  8993     1 
 8987  8994     1 
 8987  8995     1 
 8988  8991     1 
 8989  8991     1 
 8990  8991     1 
 8991  8995     1 
 8995  8999     1 
 8995  9000     1 
 8995  9002     1 
 8996  8998     1 
 8997  8998     1 
 8998  9004     1 
 8998  9005     1 
 8998  9006     1 
 8999  9003     1 
 9000  9003     1 
 9001  9003     1 
 9002  9007     1 
 9002  9008     1 
 9002  9014     1 
 9003  9009     1 
 9003  9015     1 
 9003  9016     1 
 9003  9017     1 
 9004  9007     1 
 9004  9008     1 
 9004  9014     1 
 9005  9007     1 
 9005  9008     1 
 9005  9014     1 
 9006  9010     1 
 9006  9011     1 
 9006  9018     1 
 9007  9009     1 
 9007  9015     1 
 9007  9016     1 
 9007  9017     1 
 9008  9012     1 
 9008  9013     1 
 9008  9015     1 
 9008  9016     1 
 9008  9017     1 
 9008  9023     1 
 9009  9014     1 
 9009  9024     1 
 9009  9025     1 
 9009  9026     1 
 9010  9012     1 
 9010  9013     1 
 9010  9023     1 
 9011  9027     1 
 9011  9028     1 
 9011  9029     1 
 9012  9024     1 
 9012  9025     1 
 9012  9026     1 
 9013  9024     1 
 9013  9025     1 
 9013  9026     1 
 9014  9019     1 
 9014  9020     1 
 9015  9018     1 
 9016  9018     1 
 9017  9021     1 
 9017  9022     1 
 9017  9070     1 
 9018  9071     1 
 9018  9072     1 
 9018  9073     1 
 9019  9021     1 
 9019  9022     1 
 9019  9070     1 
 9020  9074     1 
 9020  9075     1 
 9020  9076     1 
 9021  9071     1 
 9021  9072     1 
 9021  9073     1 
 9022  9071     1 
 9022  9072     1 
 9022  9073     1 
 9023  9030     1 
 9023  9031     1 
 9023  9032     1 
 9024  9027     1 
 9024  9028     1 
 9024  9029     1 
 9025  9027     1 
 9025  9028     1 
 9025  9029     1 
 9026  9033     1 
 9026  9034     1 
 9026  9035     1 
 9027  9030     1 
 9027  9031     1 
 9027  9032     1 
 9028  9030     1 
 9028  9031     1 
 9028  9032     1 
 9029  9036     1 
 9029  9037     1 
 9029  9038     1 
 9030  9033     1 
 9030  9034     1 
 9030  9035     1 
 9031  9033     1 
 9031  9034     1 
 9031  9035     1 
 9032  9039     1 
 9032  9040     1 
 9032  9041     1 
 9033  9036     1 
 9033  9037     1 
 9033  9038     1 
 9034  9036     1 
 9034  9037     1 
 9034  9038     1 
 9035  9042     1 
 9035  9043     1 
 9036  9039     1 
 9036  9040     1 
 9036  9041     1 
 9037  9039     1 
 9037  9040     1 
 9037  9041     1 
 9038  9044     1 
 9038  9045     1 
 9039  9042     1 
 9039  9043     1 
 9040  9042     1 
 9040  9043     1 
 9041  9046     1 
 9041  9047     1 
 9041  9048     1 
 9042  9044     1 
 9042  9045     1 
 9043  9049     1 
 9043  9050     1 
 9043  9051     1 
 9044  9046     1 
 9044  9047     1 
 9044  9048     1 
 9045  9052     1 
 9045  9053     1 
 9045  9054     1 
 9046  9049     1 
 9046  9050     1 
 9046  9051     1 
 9047  9049     1 
 9047  9050     1 
 9047  9051     1 
 9048  9055     1 
 9048  9056     1 
 9048  9057     1 
 9049  9052     1 
 9049  9053     1 
 9049  9054     1 
 9050  9052     1 
 9050  9053     1 
 9050  9054     1 
 9051  9058     1 
 9051  9059     1 
 9051  9060     1 
 9052  9055     1 
 9052  9056     1 
 9052  9057     1 
 9053  9055     1 
 9053  9056     1 
 9053  9057     1 
 9054  9061     1 
 9054  9062     1 
 9054  9063     1 
 9055  9058     1 
 9055  9059     1 
 9055  9060     1 
 9056  9058     1 
 9056  9059     1 
 9056  9060     1 
 9057  9064     1 
 9057  9065     1 
 9057  9066     1 
 9058  9061     1 
 9058  9062     1 
 9058  9063     1 
 9059  9061     1 
 9059  9062     1 
 9059  9063     1 
 9060  9067     1 
 9060  9068     1 
 9060  9069     1 
 9061  9064     1 
 9061  9065     1 
 9061  9066     1 
 9062  9064     1 
 9062  9065     1 
 9062  9066     1 
 9064  9067     1 
 9064  9068     1 
 9064  9069     1 
 9065  9067     1 
 9065  9068     1 
 9065  9069     1 
 9070  9077     1 
 9070  9078     1 
 9070  9079     1 
 9071  9074     1 
 9071  9075     1 
 9071  9076     1 
 9072  9074     1 
 9072  9075     1 
 9072  9076     1 
 9073  9080     1 
 9073  9081     1 
 9073  9082     1 
 9074  9077     1 
 9074  9078     1 
 9074  9079     1 
 9075  9077     1 
 9075  9078     1 
 9075  9079     1 
 9076  9083     1 
 9076  9084     1 
 9076  9085     1 
 9077  9080     1 
 9077  9081     1 
 9077  9082     1 
 9078  9080     1 
 9078  9081     1 
 9078  9082     1 
 9079  9086     1 
 9079  9087     1 
 9079  9088     1 
 9080  9083     1 
 9080  9084     1 
 9080  9085     1 
 9081  9083     1 
 9081  9084     1 
 9081  9085     1 
 9082  9089     1 
 9082  9090     1 
 9082  9091     1 
 9083  9086     1 
 9083  9087     1 
 9083  9088     1 
 9084  9086     1 
 9084  9087     1 
 9084  9088     1 
 9085  9092     1 
 9085  9093     1 
 9085  9094     1 
 9086  9089     1 
 9086  9090     1 
 9086  9091     1 
 9087  9089     1 
 9087  9090     1 
 9087  9091     1 
 9088  9095     1 
 9088  9096     1 
 9088  9097     1 
 9089  9092     1 
 9089  9093     1 
 9089  9094     1 
 9090  9092     1 
 9090  9093     1 
 9090  9094     1 
 9091  9098     1 
 9091  9099     1 
 9091  9100     1 
 9092  9095     1 
 9092  9096     1 
 9092  9097     1 
 9093  9095     1 
 9093  9096     1 
 9093  9097     1 
 9094  9101     1 
 9094  9102     1 
 9094  9103     1 
 9095  9098     1 
 9095  9099     1 
 9095  9100     1 
 9096  9098     1 
 9096  9099     1 
 9096  9100     1 
 9097  9104     1 
 9097  9105     1 
 9097  9106     1 
 9098  9101     1 
 9098  9102     1 
 9098  9103     1 
 9099  9101     1 
 9099  9102     1 
 9099  9103     1 
 9100  9107     1 
 9100  9108     1 
 9100  9109     1 
 9101  9104     1 
 9101  9105     1 
 9101  9106     1 
 9102  9104     1 
 9102  9105     1 
 9102  9106     1 
 9103  9110     1 
 9103  9111     1 
 9103  9112     1 
 9104  9107     1 
 9104  9108     1 
 9104  9109     1 
 9105  9107     1 
 9105  9108     1 
 9105  9109     1 
 9107  9110     1 
 9107  9111     1 
 9107  9112     1 
 9108  9110     1 
 9108  9111     1 
 9108  9112     1 
 9113  9130     1 
 9113  9131     1 
 9113  9135     1 
 9114  9118     1 
 9114  9119     1 
 9114  9120     1 
 9114  9122     1 
 9114  9123     1 
 9114  9124     1 
 9114  9126     1 
 9114  9127     1 
 9114  9128     1 
 9114  9132     1 
 9115  9117     1 
 9115  9121     1 
 9115  9125     1 
 9115  9130     1 
 9115  9131     1 
 9115  9135     1 
 9116  9117     1 
 9116  9121     1 
 9116  9125     1 
 9116  9130     1 
 9116  9131     1 
 9116  9135     1 
 9117  9122     1 
 9117  9123     1 
 9117  9124     1 
 9117  9126     1 
 9117  9127     1 
 9117  9128     1 
 9117  9129     1 
 9118  9121     1 
 9118  9125     1 
 9119  9121     1 
 9119  9125     1 
 9120  9121     1 
 9120  9125     1 
 9121  9126     1 
 9121  9127     1 
 9121  9128     1 
 9121  9129     1 
 9122  9125     1 
 9123  9125     1 
 9124  9125     1 
 9125  9129     1 
 9129  9133     1 
 9129  9134     1 
 9129  9136     1 
 9130  9132     1 
 9131  9132     1 
 9132  9138     1 
 9132  9139     1 
 9132  9140     1 
 9133  9137     1 
 9134  9137     1 
 9135  9137     1 
 9136  9141     1 
 9136  9142     1 
 9136  9148     1 
 9137  9143     1 
 9137  9149     1 
 9137  9150     1 
 9137  9151     1 
 9138  9141     1 
 9138  9142     1 
 9138  9148     1 
 9139  9141     1 
 9139  9142     1 
 9139  9148     1 
 9140  9144     1 
 9140  9145     1 
 9140  9152     1 
 9141  9143     1 
 9141  9149     1 
 9141  9150     1 
 9141  9151     1 
 9142  9146     1 
 9142  9147     1 
 9142  9149     1 
 9142  9150     1 
 9142  9151     1 
 9142  9157     1 
 9143  9148     1 
 9143  9158     1 
 9143  9159     1 
 9143  9160     1 
 9144  9146     1 
 9144  9147     1 
 9144  9157     1 
 9145  9161     1 
 9145  9162     1 
 9145  9163     1 
 9146  9158     1 
 9146  9159     1 
 9146  9160     1 
 9147  9158     1 
 9147  9159     1 
 9147  9160     1 
 9148  9153     1 
 9148  9154     1 
 9149  9152     1 
 9150  9152     1 
 9151  9155     1 
 9151  9156     1 
 9151  9204     1 
 9152  9205     1 
 9152  9206     1 
 9152  9207     1 
 9153  9155     1 
 9153  9156     1 
 9153  9204     1 
 9154  9208     1 
 9154  9209     1 
 9154  9210     1 
 9155  9205     1 
 9155  9206     1 
 9155  9207     1 
 9156  9205     1 
 9156  9206     1 
 9156  9207     1 
 9157  9164     1 
 9157  9165     1 
 9157  9166     1 
 9158  9161     1 
 9158  9162     1 
 9158  9163     1 
 9159  9161     1 
 9159  9162     1 
 9159  9163     1 
 9160  9167     1 
 9160  9168     1 
 9160  9169     1 
 9161  9164     1 
 9161  9165     1 
 9161  9166     1 
 9162  9164     1 
 9162  9165     1 
 9162  9166     1 
 9163  9170     1 
 9163  9171     1 
 9163  9172     1 
 9164  9167     1 
 9164  9168     1 
 9164  9169     1 
 9165  9167     1 
 9165  9168     1 
 9165  9169     1 
 9166  9173     1 
 9166  9174     1 
 9166  9175     1 
 9167  9170     1 
 9167  9171     1 
 9167  9172     1 
 9168  9170     1 
 9168  9171     1 
 9168  9172     1 
 9169  9176     1 
 9169  9177     1 
 9170  9173     1 
 9170  9174     1 
 9170  9175     1 
 9171  9173     1 
 9171  9174     1 
 9171  9175     1 
 9172  9178     1 
 9172  9179     1 
 9173  9176     1 
 9173  9177     1 
 9174  9176     1 
 9174  9177     1 
 9175  9180     1 
 9175  9181     1 
 9175  9182     1 
 9176  9178     1 
 9176  9179     1 
 9177  9183     1 
 9177  9184     1 
 9177  9185     1 
 9178  9180     1 
 9178  9181     1 
 9178  9182     1 
 9179  9186     1 
 9179  9187     1 
 9179  9188     1 
 9180  9183     1 
 9180  9184     1 
 9180  9185     1 
 9181  9183     1 
 9181  9184     1 
 9181  9185     1 
 9182  9189     1 
 9182  9190     1 
 9182  9191     1 
 9183  9186     1 
 9183  9187     1 
 9183  9188     1 
 9184  9186     1 
 9184  9187     1 
 9184  9188     1 
 9185  9192     1 
 9185  9193     1 
 9185  9194     1 
 9186  9189     1 
 9186  9190     1 
 9186  9191     1 
 9187  9189     1 
 9187  9190     1 
 9187  9191     1 
 9188  9195     1 
 9188  9196     1 
 9188  9197     1 
 9189  9192     1 
 9189  9193     1 
 9189  9194     1 
 9190  9192     1 
 9190  9193     1 
 9190  9194     1 
 9191  9198     1 
 9191  9199     1 
 9191  9200     1 
 9192  9195     1 
 9192  9196     1 
 9192  9197     1 
 9193  9195     1 
 9193  9196     1 
 9193  9197     1 
 9194  9201     1 
 9194  9202     1 
 9194  9203     1 
 9195  9198     1 
 9195  9199     1 
 9195  9200     1 
 9196  9198     1 
 9196  9199     1 
 9196  9200     1 
 9198  9201     1 
 9198  9202     1 
 9198  9203     1 
 9199  9201     1 
 9199  9202     1 
 9199  9203     1 
 9204  9211     1 
 9204  9212     1 
 9204  9213     1 
 9205  9208     1 
 9205  9209     1 
 9205  9210     1 
 9206  9208     1 
 9206  9209     1 
 9206  9210     1 
 9207  9214     1 
 9207  9215     1 
 9207  9216     1 
 9208  9211     1 
 9208  9212     1 
 9208  9213     1 
 9209  9211     1 
 9209  9212     1 
 9209  9213     1 
 9210  9217     1 
 9210  9218     1 
 9210  9219     1 
 9211  9214     1 
 9211  9215     1 
 9211  9216     1 
 9212  9214     1 
 9212  9215     1 
 9212  9216     1 
 9213  9220     1 
 9213  9221     1 
 9213  9222     1 
 9214  9217     1 
 9214  9218     1 
 9214  9219     1 
 9215  9217     1 
 9215  9218     1 
 9215  9219     1 
 9216  9223     1 
 9216  9224     1 
 9216  9225     1 
 9217  9220     1 
 9217  9221     1 
 9217  9222     1 
 9218  9220     1 
 9218  9221     1 
 9218  9222     1 
 9219  9226     1 
 9219  9227     1 
 9219  9228     1 
 9220  9223     1 
 9220  9224     1 
 9220  9225     1 
 9221  9223     1 
 9221  9224     1 
 9221  9225     1 
 9222  9229     1 
 9222  9230     1 
 9222  9231     1 
 9223  9226     1 
 9223  9227     1 
 9223  9228     1 
 9224  9226     1 
 9224  9227     1 
 9224  9228     1 
 9225  9232     1 
 9225  9233     1 
 9225  9234     1 
 9226  9229     1 
 9226  9230     1 
 9226  9231     1 
 9227  9229     1 
 9227  9230     1 
 9227  9231     1 
 9228  9235     1 
 9228  9236     1 
 9228  9237     1 
 9229  9232     1 
 9229  9233     1 
 9229  9234     1 
 9230  9232     1 
 9230  9233     1 
 9230  9234     1 
 9231  9238     1 
 9231  9239     1 
 9231  9240     1 
 9232  9235     1 
 9232  9236     1 
 9232  9237     1 
 9233  9235     1 
 9233  9236     1 
 9233  9237     1 
 9234  9241     1 
 9234  9242     1 
 9234  9243     1 
 9235  9238     1 
 9235  9239     1 
 9235  9240     1 
 9236  9238     1 
 9236  9239     1 
 9236  9240     1 
 9237  9244     1 
 9237  9245     1 
 9237  9246     1 
 9238  9241     1 
 9238  9242     1 
 9238  9243     1 
 9239  9241     1 
 9239  9242     1 
 9239  9243     1 
 9241  9244     1 
 9241  9245     1 
 9241  9246     1 
 9242  9244     1 
 9242  9245     1 
 9242  9246     1 
 9247  9264     1 
 9247  9265     1 
 9247  9269     1 
 9248  9252     1 
 9248  9253     1 
 9248  9254     1 
 9248  9256     1 
 9248  9257     1 
 9248  9258     1 
 9248  9260     1 
 9248  9261     1 
 9248  9262     1 
 9248  9266     1 
 9249  9251     1 
 9249  9255     1 
 9249  9259     1 
 9249  9264     1 
 9249  9265     1 
 9249  9269     1 
 9250  9251     1 
 9250  9255     1 
 9250  9259     1 
 9250  9264     1 
 9250  9265     1 
 9250  9269     1 
 9251  9256     1 
 9251  9257     1 
 9251  9258     1 
 9251  9260     1 
 9251  9261     1 
 9251  9262     1 
 9251  9263     1 
 9252  9255     1 
 9252  9259     1 
 9253  9255     1 
 9253  9259     1 
 9254  9255     1 
 9254  9259     1 
 9255  9260     1 
 9255  9261     1 
 9255  9262     1 
 9255  9263     1 
 9256  9259     1 
 9257  9259     1 
 9258  9259     1 
 9259  9263     1 
 9263  9267     1 
 9263  9268     1 
 9263  9270     1 
 9264  9266     1 
 9265  9266     1 
 9266  9272     1 
 9266  9273     1 
 9266  9274     1 
 9267  9271     1 
 9268  9271     1 
 9269  9271     1 
 9270  9275     1 
 9270  9276     1 
 9270  9282     1 
 9271  9277     1 
 9271  9283     1 
 9271  9284     1 
 9271  9285     1 
 9272  9275     1 
 9272  9276     1 
 9272  9282     1 
 9273  9275     1 
 9273  9276     1 
 9273  9282     1 
 9274  9278     1 
 9274  9279     1 
 9274  9286     1 
 9275  9277     1 
 9275  9283     1 
 9275  9284     1 
 9275  9285     1 
 9276  9280     1 
 9276  9281     1 
 9276  9283     1 
 9276  9284     1 
 9276  9285     1 
 9276  9291     1 
 9277  9282     1 
 9277  9292     1 
 9277  9293     1 
 9277  9294     1 
 9278  9280     1 
 9278  9281     1 
 9278  9291     1 
 9279  9295     1 
 9279  9296     1 
 9279  9297     1 
 9280  9292     1 
 9280  9293     1 
 9280  9294     1 
 9281  9292     1 
 9281  9293     1 
 9281  9294     1 
 9282  9287     1 
 9282  9288     1 
 9283  9286     1 
 9284  9286     1 
 9285  9289     1 
 9285  9290     1 
 9285  9338     1 
 9286  9339     1 
 9286  9340     1 
 9286  9341     1 
 9287  9289     1 
 9287  9290     1 
 9287  9338     1 
 9288  9342     1 
 9288  9343     1 
 9288  9344     1 
 9289  9339     1 
 9289  9340     1 
 9289  9341     1 
 9290  9339     1 
 9290  9340     1 
 9290  9341     1 
 9291  9298     1 
 9291  9299     1 
 9291  9300     1 
 9292  9295     1 
 9292  9296     1 
 9292  9297     1 
 9293  9295     1 
 9293  9296     1 
 9293  9297     1 
 9294  9301     1 
 9294  9302     1 
 9294  9303     1 
 9295  9298     1 
 9295  9299     1 
 9295  9300     1 
 9296  9298     1 
 9296  9299     1 
 9296  9300     1 
 9297  9304     1 
 9297  9305     1 
 9297  9306     1 
 9298  9301     1 
 9298  9302     1 
 9298  9303     1 
 9299  9301     1 
 9299  9302     1 
 9299  9303     1 
 9300  9307     1 
 9300  9308     1 
 9300  9309     1 
 9301  9304     1 
 9301  9305     1 
 9301  9306     1 
 9302  9304     1 
 9302  9305     1 
 9302  9306     1 
 9303  9310     1 
 9303  9311     1 
 9304  9307     1 
 9304  9308     1 
 9304  9309     1 
 9305  9307     1 
 9305  9308     1 
 9305  9309     1 
 9306  9312     1 
 9306  9313     1 
 9307  9310     1 
 9307  9311     1 
 9308  9310     1 
 9308  9311     1 
 9309  9314     1 
 9309  9315     1 
 9309  9316     1 
 9310  9312     1 
 9310  9313     1 
 9311  9317     1 
 9311  9318     1 
 9311  9319     1 
 9312  9314     1 
 9312  9315     1 
 9312  9316     1 
 9313  9320     1 
 9313  9321     1 
 9313  9322     1 
 9314  9317     1 
 9314  9318     1 
 9314  9319     1 
 9315  9317     1 
 9315  9318     1 
 9315  9319     1 
 9316  9323     1 
 9316  9324     1 
 9316  9325     1 
 9317  9320     1 
 9317  9321     1 
 9317  9322     1 
 9318  9320     1 
 9318  9321     1 
 9318  9322     1 
 9319  9326     1 
 9319  9327     1 
 9319  9328     1 
 9320  9323     1 
 9320  9324     1 
 9320  9325     1 
 9321  9323     1 
 9321  9324     1 
 9321  9325     1 
 9322  9329     1 
 9322  9330     1 
 9322  9331     1 
 9323  9326     1 
 9323  9327     1 
 9323  9328     1 
 9324  9326     1 
 9324  9327     1 
 9324  9328     1 
 9325  9332     1 
 9325  9333     1 
 9325  9334     1 
 9326  9329     1 
 9326  9330     1 
 9326  9331     1 
 9327  9329     1 
 9327  9330     1 
 9327  9331     1 
 9328  9335     1 
 9328  9336     1 
 9328  9337     1 
 9329  9332     1 
 9329  9333     1 
 9329  9334     1 
 9330  9332     1 
 9330  9333     1 
 9330  9334     1 
 9332  9335     1 
 9332  9336     1 
 9332  9337     1 
 9333  9335     1 
 9333  9336     1 
 9333  9337     1 
 9338  9345     1 
 9338  9346     1 
 9338  9347     1 
 9339  9342     1 
 9339  9343     1 
 9339  9344     1 
 9340  9342     1 
 9340  9343     1 
 9340  9344     1 
 9341  9348     1 
 9341  9349     1 
 9341  9350     1 
 9342  9345     1 
 9342  9346     1 
 9342  9347     1 
 9343  9345     1 
 9343  9346     1 
 9343  9347     1 
 9344  9351     1 
 9344  9352     1 
 9344  9353     1 
 9345  9348     1 
 9345  9349     1 
 9345  9350     1 
 9346  9348     1 
 9346  9349     1 
 9346  9350     1 
 9347  9354     1 
 9347  9355     1 
 9347  9356     1 
 9348  9351     1 
 9348  9352     1 
 9348  9353     1 
 9349  9351     1 
 9349  9352     1 
 9349  9353     1 
 9350  9357     1 
 9350  9358     1 
 9350  9359     1 
 9351  9354     1 
 9351  9355     1 
 9351  9356     1 
 9352  9354     1 
 9352  9355     1 
 9352  9356     1 
 9353  9360     1 
 9353  9361     1 
 9353  9362     1 
 9354  9357     1 
 9354  9358     1 
 9354  9359     1 
 9355  9357     1 
 9355  9358     1 
 9355  9359     1 
 9356  9363     1 
 9356  9364     1 
 9356  9365     1 
 9357  9360     1 
 9357  9361     1 
 9357  9362     1 
 9358  9360     1 
 9358  9361     1 
 9358  9362     1 
 9359  9366     1 
 9359  9367     1 
 9359  9368     1 
 9360  9363     1 
 9360  9364     1 
 9360  9365     1 
 9361  9363     1 
 9361  9364     1 
 9361  9365     1 
 9362  9369     1 
 9362  9370     1 
 9362  9371     1 
 9363  9366     1 
 9363  9367     1 
 9363  9368     1 
 9364  9366     1 
 9364  9367     1 
 9364  9368     1 
 9365  9372     1 
 9365  9373     1 
 9365  9374     1 
 9366  9369     1 
 9366  9370     1 
 9366  9371     1 
 9367  9369     1 
 9367  9370     1 
 9367  9371     1 
 9368  9375     1 
 9368  9376     1 
 9368  9377     1 
 9369  9372     1 
 9369  9373     1 
 9369  9374     1 
 9370  9372     1 
 9370  9373     1 
 9370  9374     1 
 9371  9378     1 
 9371  9379     1 
 9371  9380     1 
 9372  9375     1 
 9372  9376     1 
 9372  9377     1 
 9373  9375     1 
 9373  9376     1 
 9373  9377     1 
 9375  9378     1 
 9375  9379     1 
 9375  9380     1 
 9376  9378     1 
 9376  9379     1 
 9376  9380     1 
 9381  9398     1 
 9381  9399     1 
 9381  9403     1 
 9382  9386     1 
 9382  9387     1 
 9382  9388     1 
 9382  9390     1 
 9382  9391     1 
 9382  9392     1 
 9382  9394     1 
 9382  9395     1 
 9382  9396     1 
 9382  9400     1 
 9383  9385     1 
 9383  9389     1 
 9383  9393     1 
 9383  9398     1 
 9383  9399     1 
 9383  9403     1 
 9384  9385     1 
 9384  9389     1 
 9384  9393     1 
 9384  9398     1 
 9384  9399     1 
 9384  9403     1 
 9385  9390     1 
 9385  9391     1 
 9385  9392     1 
 9385  9394     1 
 9385  9395     1 
 9385  9396     1 
 9385  9397     1 
 9386  9389     1 
 9386  9393     1 
 9387  9389     1 
 9387  9393     1 
 9388  9389     1 
 9388  9393     1 
 9389  9394     1 
 9389  9395     1 
 9389  9396     1 
 9389  9397     1 
 9390  9393     1 
 9391  9393     1 
 9392  9393     1 
 9393  9397     1 
 9397  9401     1 
 9397  9402     1 
 9397  9404     1 
 9398  9400     1 
 9399  9400     1 
 9400  9406     1 
 9400  9407     1 
 9400  9408     1 
 9401  9405     1 
 9402  9405     1 
 9403  9405     1 
 9404  9409     1 
 9404  9410     1 
 9404  9416     1 
 9405  9411     1 
 9405  9417     1 
 9405  9418     1 
 9405  9419     1 
 9406  9409     1 
 9406  9410     1 
 9406  9416     1 
 9407  9409     1 
 9407  9410     1 
 9407  9416     1 
 9408  9412     1 
 9408  9413     1 
 9408  9420     1 
 9409  9411     1 
 9409  9417     1 
 9409  9418     1 
 9409  9419     1 
 9410  9414     1 
 9410  9415     1 
 9410  9417     1 
 9410  9418     1 
 9410  9419     1 
 9410  9425     1 
 9411  9416     1 
 9411  9426     1 
 9411  9427     1 
 9411  9428     1 
 9412  9414     1 
 9412  9415     1 
 9412  9425     1 
 9413  9429     1 
 9413  9430     1 
 9413  9431     1 
 9414  9426     1 
 9414  9427     1 
 9414  9428     1 
 9415  9426     1 
 9415  9427     1 
 9415  9428     1 
 9416  9421     1 
 9416  9422     1 
 9417  9420     1 
 9418  9420     1 
 9419  9423     1 
 9419  9424     1 
 9419  9472     1 
 9420  9473     1 
 9420  9474     1 
 9420  9475     1 
 9421  9423     1 
 9421  9424     1 
 9421  9472     1 
 9422  9476     1 
 9422  9477     1 
 9422  9478     1 
 9423  9473     1 
 9423  9474     1 
 9423  9475     1 
 9424  9473     1 
 9424  9474     1 
 9424  9475     1 
 9425  9432     1 
 9425  9433     1 
 9425  9434     1 
 9426  9429     1 
 9426  9430     1 
 9426  9431     1 
 9427  9429     1 
 9427  9430     1 
 9427  9431     1 
 9428  9435     1 
 9428  9436     1 
 9428  9437     1 
 9429  9432     1 
 9429  9433     1 
 9429  9434     1 
 9430  9432     1 
 9430  9433     1 
 9430  9434     1 
 9431  9438     1 
 9431  9439     1 
 9431  9440     1 
 9432  9435     1 
 9432  9436     1 
 9432  9437     1 
 9433  9435     1 
 9433  9436     1 
 9433  9437     1 
 9434  9441     1 
 9434  9442     1 
 9434  9443     1 
 9435  9438     1 
 9435  9439     1 
 9435  9440     1 
 9436  9438     1 
 9436  9439     1 
 9436  9440     1 
 9437  9444     1 
 9437  9445     1 
 9438  9441     1 
 9438  9442     1 
 9438  9443     1 
 9439  9441     1 
 9439  9442     1 
 9439  9443     1 
 9440  9446     1 
 9440  9447     1 
 9441  9444     1 
 9441  9445     1 
 9442  9444     1 
 9442  9445     1 
 9443  9448     1 
 9443  9449     1 
 9443  9450     1 
 9444  9446     1 
 9444  9447     1 
 9445  9451     1 
 9445  9452     1 
 9445  9453     1 
 9446  9448     1 
 9446  9449     1 
 9446  9450     1 
 9447  9454     1 
 9447  9455     1 
 9447  9456     1 
 9448  9451     1 
 9448  9452     1 
 9448  9453     1 
 9449  9451     1 
 9449  9452     1 
 9449  9453     1 
 9450  9457     1 
 9450  9458     1 
 9450  9459     1 
 9451  9454     1 
 9451  9455     1 
 9451  9456     1 
 9452  9454     1 
 9452  9455     1 
 9452  9456     1 
 9453  9460     1 
 9453  9461     1 
 9453  9462     1 
 9454  9457     1 
 9454  9458     1 
 9454  9459     1 
 9455  9457     1 
 9455  9458     1 
 9455  9459     1 
 9456  9463     1 
 9456  9464     1 
 9456  9465     1 
 9457  9460     1 
 9457  9461     1 
 9457  9462     1 
 9458  9460     1 
 9458  9461     1 
 9458  9462     1 
 9459  9466     1 
 9459  9467     1 
 9459  9468     1 
 9460  9463     1 
 9460  9464     1 
 9460  9465     1 
 9461  9463     1 
 9461  9464     1 
 9461  9465     1 
 9462  9469     1 
 9462  9470     1 
 9462  9471     1 
 9463  9466     1 
 9463  9467     1 
 9463  9468     1 
 9464  9466     1 
 9464  9467     1 
 9464  9468     1 
 9466  9469     1 
 9466  9470     1 
 9466  9471     1 
 9467  9469     1 
 9467  9470     1 
 9467  9471     1 
 9472  9479     1 
 9472  9480     1 
 9472  9481     1 
 9473  9476     1 
 9473  9477     1 
 9473  9478     1 
 9474  9476     1 
 9474  9477     1 
 9474  9478     1 
 9475  9482     1 
 9475  9483     1 
 9475  9484     1 
 9476  9479     1 
 9476  9480     1 
 9476  9481     1 
 9477  9479     1 
 9477  9480     1 
 9477  9481     1 
 9478  9485     1 
 9478  9486     1 
 9478  9487     1 
 9479  9482     1 
 9479  9483     1 
 9479  9484     1 
 9480  9482     1 
 9480  9483     1 
 9480  9484     1 
 9481  9488     1 
 9481  9489     1 
 9481  9490     1 
 9482  9485     1 
 9482  9486     1 
 9482  9487     1 
 9483  9485     1 
 9483  9486     1 
 9483  9487     1 
 9484  9491     1 
 9484  9492     1 
 9484  9493     1 
 9485  9488     1 
 9485  9489     1 
 9485  9490     1 
 9486  9488     1 
 9486  9489     1 
 9486  9490     1 
 9487  9494     1 
 9487  9495     1 
 9487  9496     1 
 9488  9491     1 
 9488  9492     1 
 9488  9493     1 
 9489  9491     1 
 9489  9492     1 
 9489  9493     1 
 9490  9497     1 
 9490  9498     1 
 9490  9499     1 
 9491  9494     1 
 9491  9495     1 
 9491  9496     1 
 9492  9494     1 
 9492  9495     1 
 9492  9496     1 
 9493  9500     1 
 9493  9501     1 
 9493  9502     1 
 9494  9497     1 
 9494  9498     1 
 9494  9499     1 
 9495  9497     1 
 9495  9498     1 
 9495  9499     1 
 9496  9503     1 
 9496  9504     1 
 9496  9505     1 
 9497  9500     1 
 9497  9501     1 
 9497  9502     1 
 9498  9500     1 
 9498  9501     1 
 9498  9502     1 
 9499  9506     1 
 9499  9507     1 
 9499  9508     1 
 9500  9503     1 
 9500  9504     1 
 9500  9505     1 
 9501  9503     1 
 9501  9504     1 
 9501  9505     1 
 9502  9509     1 
 9502  9510     1 
 9502  9511     1 
 9503  9506     1 
 9503  9507     1 
 9503  9508     1 
 9504  9506     1 
 9504  9507     1 
 9504  9508     1 
 9505  9512     1 
 9505  9513     1 
 9505  9514     1 
 9506  9509     1 
 9506  9510     1 
 9506  9511     1 
 9507  9509     1 
 9507  9510     1 
 9507  9511     1 
 9509  9512     1 
 9509  9513     1 
 9509  9514     1 
 9510  9512     1 
 9510  9513     1 
 9510  9514     1 
 9515  9532     1 
 9515  9533     1 
 9515  9537     1 
 9516  9520     1 
 9516  9521     1 
 9516  9522     1 
 9516  9524     1 
 9516  9525     1 
 9516  9526     1 
 9516  9528     1 
 9516  9529     1 
 9516  9530     1 
 9516  9534     1 
 9517  9519     1 
 9517  9523     1 
 9517  9527     1 
 9517  9532     1 
 9517  9533     1 
 9517  9537     1 
 9518  9519     1 
 9518  9523     1 
 9518  9527     1 
 9518  9532     1 
 9518  9533     1 
 9518  9537     1 
 9519  9524     1 
 9519  9525     1 
 9519  9526     1 
 9519  9528     1 
 9519  9529     1 
 9519  9530     1 
 9519  9531     1 
 9520  9523     1 
 9520  9527     1 
 9521  9523     1 
 9521  9527     1 
 9522  9523     1 
 9522  9527     1 
 9523  9528     1 
 9523  9529     1 
 9523  9530     1 
 9523  9531     1 
 9524  9527     1 
 9525  9527     1 
 9526  9527     1 
 9527  9531     1 
 9531  9535     1 
 9531  9536     1 
 9531  9538     1 
 9532  9534     1 
 9533  9534     1 
 9534  9540     1 
 9534  9541     1 
 9534  9542     1 
 9535  9539     1 
 9536  9539     1 
 9537  9539     1 
 9538  9543     1 
 9538  9544     1 
 9538  9550     1 
 9539  9545     1 
 9539  9551     1 
 9539  9552     1 
 9539  9553     1 
 9540  9543     1 
 9540  9544     1 
 9540  9550     1 
 9541  9543     1 
 9541  9544     1 
 9541  9550     1 
 9542  9546     1 
 9542  9547     1 
 9542  9554     1 
 9543  9545     1 
 9543  9551     1 
 9543  9552     1 
 9543  9553     1 
 9544  9548     1 
 9544  9549     1 
 9544  9551     1 
 9544  9552     1 
 9544  9553     1 
 9544  9559     1 
 9545  9550     1 
 9545  9560     1 
 9545  9561     1 
 9545  9562     1 
 9546  9548     1 
 9546  9549     1 
 9546  9559     1 
 9547  9563     1 
 9547  9564     1 
 9547  9565     1 
 9548  9560     1 
 9548  9561     1 
 9548  9562     1 
 9549  9560     1 
 9549  9561     1 
 9549  9562     1 
 9550  9555     1 
 9550  9556     1 
 9551  9554     1 
 9552  9554     1 
 9553  9557     1 
 9553  9558     1 
 9553  9606     1 
 9554  9607     1 
 9554  9608     1 
 9554  9609     1 
 9555  9557     1 
 9555  9558     1 
 9555  9606     1 
 9556  9610     1 
 9556  9611     1 
 9556  9612     1 
 9557  9607     1 
 9557  9608     1 
 9557  9609     1 
 9558  9607     1 
 9558  9608     1 
 9558  9609     1 
 9559  9566     1 
 9559  9567     1 
 9559  9568     1 
 9560  9563     1 
 9560  9564     1 
 9560  9565     1 
 9561  9563     1 
 9561  9564     1 
 9561  9565     1 
 9562  9569     1 
 9562  9570     1 
 9562  9571     1 
 9563  9566     1 
 9563  9567     1 
 9563  9568     1 
 9564  9566     1 
 9564  9567     1 
 9564  9568     1 
 9565  9572     1 
 9565  9573     1 
 9565  9574     1 
 9566  9569     1 
 9566  9570     1 
 9566  9571     1 
 9567  9569     1 
 9567  9570     1 
 9567  9571     1 
 9568  9575     1 
 9568  9576     1 
 9568  9577     1 
 9569  9572     1 
 9569  9573     1 
 9569  9574     1 
 9570  9572     1 
 9570  9573     1 
 9570  9574     1 
 9571  9578     1 
 9571  9579     1 
 9572  9575     1 
 9572  9576     1 
 9572  9577     1 
 9573  9575     1 
 9573  9576     1 
 9573  9577     1 
 9574  9580     1 
 9574  9581     1 
 9575  9578     1 
 9575  9579     1 
 9576  9578     1 
 9576  9579     1 
 9577  9582     1 
 9577  9583     1 
 9577  9584     1 
 9578  9580     1 
 9578  9581     1 
 9579  9585     1 
 9579  9586     1 
 9579  9587     1 
 9580  9582     1 
 9580  9583     1 
 9580  9584     1 
 9581  9588     1 
 9581  9589     1 
 9581  9590     1 
 9582  9585     1 
 9582  9586     1 
 9582  9587     1 
 9583  9585     1 
 9583  9586     1 
 9583  9587     1 
 9584  9591     1 
 9584  9592     1 
 9584  9593     1 
 9585  9588     1 
 9585  9589     1 
 9585  9590     1 
 9586  9588     1 
 9586  9589     1 
 9586  9590     1 
 9587  9594     1 
 9587  9595     1 
 9587  9596     1 
 9588  9591     1 
 9588  9592     1 
 9588  9593     1 
 9589  9591     1 
 9589  9592     1 
 9589  9593     1 
 9590  9597     1 
 9590  9598     1 
 9590  9599     1 
 9591  9594     1 
 9591  9595     1 
 9591  9596     1 
 9592  9594     1 
 9592  9595     1 
 9592  9596     1 
 9593  9600     1 
 9593  9601     1 
 9593  9602     1 
 9594  9597     1 
 9594  9598     1 
 9594  9599     1 
 9595  9597     1 
 9595  9598     1 
 9595  9599     1 
 9596  9603     1 
 9596  9604     1 
 9596  9605     1 
 9597  9600     1 
 9597  9601     1 
 9597  9602     1 
 9598  9600     1 
 9598  9601     1 
 9598  9602     1 
 9600  9603     1 
 9600  9604     1 
 9600  9605     1 
 9601  9603     1 
 9601  9604     1 
 9601  9605     1 
 9606  9613     1 
 9606  9614     1 
 9606  9615     1 
 9607  9610     1 
 9607  9611     1 
 9607  9612     1 
 9608  9610     1 
 9608  9611     1 
 9608  9612     1 
 9609  9616     1 
 9609  9617     1 
 9609  9618     1 
 9610  9613     1 
 9610  9614     1 
 9610  9615     1 
 9611  9613     1 
 9611  9614     1 
 9611  9615     1 
 9612  9619     1 
 9612  9620     1 
 9612  9621     1 
 9613  9616     1 
 9613  9617     1 
 9613  9618     1 
 9614  9616     1 
 9614  9617     1 
 9614  9618     1 
 9615  9622     1 
 9615  9623     1 
 9615  9624     1 
 9616  9619     1 
 9616  9620     1 
 9616  9621     1 
 9617  9619     1 
 9617  9620     1 
 9617  9621     1 
 9618  9625     1 
 9618  9626     1 
 9618  9627     1 
 9619  9622     1 
 9619  9623     1 
 9619  9624     1 
 9620  9622     1 
 9620  9623     1 
 9620  9624     1 
 9621  9628     1 
 9621  9629     1 
 9621  9630     1 
 9622  9625     1 
 9622  9626     1 
 9622  9627     1 
 9623  9625     1 
 9623  9626     1 
 9623  9627     1 
 9624  9631     1 
 9624  9632     1 
 9624  9633     1 
 9625  9628     1 
 9625  9629     1 
 9625  9630     1 
 9626  9628     1 
 9626  9629     1 
 9626  9630     1 
 9627  9634     1 
 9627  9635     1 
 9627  9636     1 
 9628  9631     1 
 9628  9632     1 
 9628  9633     1 
 9629  9631     1 
 9629  9632     1 
 9629  9633     1 
 9630  9637     1 
 9630  9638     1 
 9630  9639     1 
 9631  9634     1 
 9631  9635     1 
 9631  9636     1 
 9632  9634     1 
 9632  9635     1 
 9632  9636     1 
 9633  9640     1 
 9633  9641     1 
 9633  9642     1 
 9634  9637     1 
 9634  9638     1 
 9634  9639     1 
 9635  9637     1 
 9635  9638     1 
 9635  9639     1 
 9636  9643     1 
 9636  9644     1 
 9636  9645     1 
 9637  9640     1 
 9637  9641     1 
 9637  9642     1 
 9638  9640     1 
 9638  9641     1 
 9638  9642     1 
 9639  9646     1 
 9639  9647     1 
 9639  9648     1 
 9640  9643     1 
 9640  9644     1 
 9640  9645     1 
 9641  9643     1 
 9641  9644     1 
 9641  9645     1 
 9643  9646     1 
 9643  9647     1 
 9643  9648     1 
 9644  9646     1 
 9644  9647     1 
 9644  9648     1 
 9649  9666     1 
 9649  9667     1 
 9649  9671     1 
 9650  9654     1 
 9650  9655     1 
 9650  9656     1 
 9650  9658     1 
 9650  9659     1 
 9650  9660     1 
 9650  9662     1 
 9650  9663     1 
 9650  9664     1 
 9650  9668     1 
 9651  9653     1 
 9651  9657     1 
 9651  9661     1 
 9651  9666     1 
 9651  9667     1 
 9651  9671     1 
 9652  9653     1 
 9652  9657     1 
 9652  9661     1 
 9652  9666     1 
 9652  9667     1 
 9652  9671     1 
 9653  9658     1 
 9653  9659     1 
 9653  9660     1 
 9653  9662     1 
 9653  9663     1 
 9653  9664     1 
 9653  9665     1 
 9654  9657     1 
 9654  9661     1 
 9655  9657     1 
 9655  9661     1 
 9656  9657     1 
 9656  9661     1 
 9657  9662     1 
 9657  9663     1 
 9657  9664     1 
 9657  9665     1 
 9658  9661     1 
 9659  9661     1 
 9660  9661     1 
 9661  9665     1 
 9665  9669     1 
 9665  9670     1 
 9665  9672     1 
 9666  9668     1 
 9667  9668     1 
 9668  9674     1 
 9668  9675     1 
 9668  9676     1 
 9669  9673     1 
 9670  9673     1 
 9671  9673     1 
 9672  9677     1 
 9672  9678     1 
 9672  9684     1 
 9673  9679     1 
 9673  9685     1 
 9673  9686     1 
 9673  9687     1 
 9674  9677     1 
 9674  9678     1 
 9674  9684     1 
 9675  9677     1 
 9675  9678     1 
 9675  9684     1 
 9676  9680     1 
 9676  9681     1 
 9676  9688     1 
 9677  9679     1 
 9677  9685     1 
 9677  9686     1 
 9677  9687     1 
 9678  9682     1 
 9678  9683     1 
 9678  9685     1 
 9678  9686     1 
 9678  9687     1 
 9678  9693     1 
 9679  9684     1 
 9679  9694     1 
 9679  9695     1 
 9679  9696     1 
 9680  9682     1 
 9680  9683     1 
 9680  9693     1 
 9681  9697     1 
 9681  9698     1 
 9681  9699     1 
 9682  9694     1 
 9682  9695     1 
 9682  9696     1 
 9683  9694     1 
 9683  9695     1 
 9683  9696     1 
 9684  9689     1 
 9684  9690     1 
 9685  9688     1 
 9686  9688     1 
 9687  9691     1 
 9687  9692     1 
 9687  9740     1 
 9688  9741     1 
 9688  9742     1 
 9688  9743     1 
 9689  9691     1 
 9689  9692     1 
 9689  9740     1 
 9690  9744     1 
 9690  9745     1 
 9690  9746     1 
 9691  9741     1 
 9691  9742     1 
 9691  9743     1 
 9692  9741     1 
 9692  9742     1 
 9692  9743     1 
 9693  9700     1 
 9693  9701     1 
 9693  9702     1 
 9694  9697     1 
 9694  9698     1 
 9694  9699     1 
 9695  9697     1 
 9695  9698     1 
 9695  9699     1 
 9696  9703     1 
 9696  9704     1 
 9696  9705     1 
 9697  9700     1 
 9697  9701     1 
 9697  9702     1 
 9698  9700     1 
 9698  9701     1 
 9698  9702     1 
 9699  9706     1 
 9699  9707     1 
 9699  9708     1 
 9700  9703     1 
 9700  9704     1 
 9700  9705     1 
 9701  9703     1 
 9701  9704     1 
 9701  9705     1 
 9702  9709     1 
 9702  9710     1 
 9702  9711     1 
 9703  9706     1 
 9703  9707     1 
 9703  9708     1 
 9704  9706     1 
 9704  9707     1 
 9704  9708     1 
 9705  9712     1 
 9705  9713     1 
 9706  9709     1 
 9706  9710     1 
 9706  9711     1 
 9707  9709     1 
 9707  9710     1 
 9707  9711     1 
 9708  9714     1 
 9708  9715     1 
 9709  9712     1 
 9709  9713     1 
 9710  9712     1 
 9710  9713     1 
 9711  9716     1 
 9711  9717     1 
 9711  9718     1 
 9712  9714     1 
 9712  9715     1 
 9713  9719     1 
 9713  9720     1 
 9713  9721     1 
 9714  9716     1 
 9714  9717     1 
 9714  9718     1 
 9715  9722     1 
 9715  9723     1 
 9715  9724     1 
 9716  9719     1 
 9716  9720     1 
 9716  9721     1 
 9717  9719     1 
 9717  9720     1 
 9717  9721     1 
 9718  9725     1 
 9718  9726     1 
 9718  9727     1 
 9719  9722     1 
 9719  9723     1 
 9719  9724     1 
 9720  9722     1 
 9720  9723     1 
 9720  9724     1 
 9721  9728     1 
 9721  9729     1 
 9721  9730     1 
 9722  9725     1 
 9722  9726     1 
 9722  9727     1 
 9723  9725     1 
 9723  9726     1 
 9723  9727     1 
 9724  9731     1 
 9724  9732     1 
 9724  9733     1 
 9725  9728     1 
 9725  9729     1 
 9725  9730     1 
 9726  9728     1 
 9726  9729     1 
 9726  9730     1 
 9727  9734     1 
 9727  9735     1 
 9727  9736     1 
 9728  9731     1 
 9728  9732     1 
 9728  9733     1 
 9729  9731     1 
 9729  9732     1 
 9729  9733     1 
 9730  9737     1 
 9730  9738     1 
 9730  9739     1 
 9731  9734     1 
 9731  9735     1 
 9731  9736     1 
 9732  9734     1 
 9732  9735     1 
 9732  9736     1 
 9734  9737     1 
 9734  9738     1 
 9734  9739     1 
 9735  9737     1 
 9735  9738     1 
 9735  9739     1 
 9740  9747     1 
 9740  9748     1 
 9740  9749     1 
 9741  9744     1 
 9741  9745     1 
 9741  9746     1 
 9742  9744     1 
 9742  9745     1 
 9742  9746     1 
 9743  9750     1 
 9743  9751     1 
 9743  9752     1 
 9744  9747     1 
 9744  9748     1 
 9744  9749     1 
 9745  9747     1 
 9745  9748     1 
 9745  9749     1 
 9746  9753     1 
 9746  9754     1 
 9746  9755     1 
 9747  9750     1 
 9747  9751     1 
 9747  9752     1 
 9748  9750     1 
 9748  9751     1 
 9748  9752     1 
 9749  9756     1 
 9749  9757     1 
 9749  9758     1 
 9750  9753     1 
 9750  9754     1 
 9750  9755     1 
 9751  9753     1 
 9751  9754     1 
 9751  9755     1 
 9752  9759     1 
 9752  9760     1 
 9752  9761     1 
 9753  9756     1 
 9753  9757     1 
 9753  9758     1 
 9754  9756     1 
 9754  9757     1 
 9754  9758     1 
 9755  9762     1 
 9755  9763     1 
 9755  9764     1 
 9756  9759     1 
 9756  9760     1 
 9756  9761     1 
 9757  9759     1 
 9757  9760     1 
 9757  9761     1 
 9758  9765     1 
 9758  9766     1 
 9758  9767     1 
 9759  9762     1 
 9759  9763     1 
 9759  9764     1 
 9760  9762     1 
 9760  9763     1 
 9760  9764     1 
 9761  9768     1 
 9761  9769     1 
 9761  9770     1 
 9762  9765     1 
 9762  9766     1 
 9762  9767     1 
 9763  9765     1 
 9763  9766     1 
 9763  9767     1 
 9764  9771     1 
 9764  9772     1 
 9764  9773     1 
 9765  9768     1 
 9765  9769     1 
 9765  9770     1 
 9766  9768     1 
 9766  9769     1 
 9766  9770     1 
 9767  9774     1 
 9767  9775     1 
 9767  9776     1 
 9768  9771     1 
 9768  9772     1 
 9768  9773     1 
 9769  9771     1 
 9769  9772     1 
 9769  9773     1 
 9770  9777     1 
 9770  9778     1 
 9770  9779     1 
 9771  9774     1 
 9771  9775     1 
 9771  9776     1 
 9772  9774     1 
 9772  9775     1 
 9772  9776     1 
 9773  9780     1 
 9773  9781     1 
 9773  9782     1 
 9774  9777     1 
 9774  9778     1 
 9774  9779     1 
 9775  9777     1 
 9775  9778     1 
 9775  9779     1 
 9777  9780     1 
 9777  9781     1 
 9777  9782     1 
 9778  9780     1 
 9778  9781     1 
 9778  9782     1 
 9783  9800     1 
 9783  9801     1 
 9783  9805     1 
 9784  9788     1 
 9784  9789     1 
 9784  9790     1 
 9784  9792     1 
 9784  9793     1 
 9784  9794     1 
 9784  9796     1 
 9784  9797     1 
 9784  9798     1 
 9784  9802     1 
 9785  9787     1 
 9785  9791     1 
 9785  9795     1 
 9785  9800     1 
 9785  9801     1 
 9785  9805     1 
 9786  9787     1 
 9786  9791     1 
 9786  9795     1 
 9786  9800     1 
 9786  9801     1 
 9786  9805     1 
 9787  9792     1 
 9787  9793     1 
 9787  9794     1 
 9787  9796     1 
 9787  9797     1 
 9787  9798     1 
 9787  9799     1 
 9788  9791     1 
 9788  9795     1 
 9789  9791     1 
 9789  9795     1 
 9790  9791     1 
 9790  9795     1 
 9791  9796     1 
 9791  9797     1 
 9791  9798     1 
 9791  9799     1 
 9792  9795     1 
 9793  9795     1 
 9794  9795     1 
 9795  9799     1 
 9799  9803     1 
 9799  9804     1 
 9799  9806     1 
 9800  9802     1 
 9801  9802     1 
 9802  9808     1 
 9802  9809     1 
 9802  9810     1 
 9803  9807     1 
 9804  9807     1 
 9805  9807     1 
 9806  9811     1 
 9806  9812     1 
 9806  9818     1 
 9807  9813     1 
 9807  9819     1 
 9807  9820     1 
 9807  9821     1 
 9808  9811     1 
 9808  9812     1 
 9808  9818     1 
 9809  9811     1 
 9809  9812     1 
 9809  9818     1 
 9810  9814     1 
 9810  9815     1 
 9810  9822     1 
 9811  9813     1 
 9811  9819     1 
 9811  9820     1 
 9811  9821     1 
 9812  9816     1 
 9812  9817     1 
 9812  9819     1 
 9812  9820     1 
 9812  9821     1 
 9812  9827     1 
 9813  9818     1 
 9813  9828     1 
 9813  9829     1 
 9813  9830     1 
 9814  9816     1 
 9814  9817     1 
 9814  9827     1 
 9815  9831     1 
 9815  9832     1 
 9815  9833     1 
 9816  9828     1 
 9816  9829     1 
 9816  9830     1 
 9817  9828     1 
 9817  9829     1 
 9817  9830     1 
 9818  9823     1 
 9818  9824     1 
 9819  9822     1 
 9820  9822     1 
 9821  9825     1 
 9821  9826     1 
 9821  9874     1 
 9822  9875     1 
 9822  9876     1 
 9822  9877     1 
 9823  9825     1 
 9823  9826     1 
 9823  9874     1 
 9824  9878     1 
 9824  9879     1 
 9824  9880     1 
 9825  9875     1 
 9825  9876     1 
 9825  9877     1 
 9826  9875     1 
 9826  9876     1 
 9826  9877     1 
 9827  9834     1 
 9827  9835     1 
 9827  9836     1 
 9828  9831     1 
 9828  9832     1 
 9828  9833     1 
 9829  9831     1 
 9829  9832     1 
 9829  9833     1 
 9830  9837     1 
 9830  9838     1 
 9830  9839     1 
 9831  9834     1 
 9831  9835     1 
 9831  9836     1 
 9832  9834     1 
 9832  9835     1 
 9832  9836     1 
 9833  9840     1 
 9833  9841     1 
 9833  9842     1 
 9834  9837     1 
 9834  9838     1 
 9834  9839     1 
 9835  9837     1 
 9835  9838     1 
 9835  9839     1 
 9836  9843     1 
 9836  9844     1 
 9836  9845     1 
 9837  9840     1 
 9837  9841     1 
 9837  9842     1 
 9838  9840     1 
 9838  9841     1 
 9838  9842     1 
 9839  9846     1 
 9839  9847     1 
 9840  9843     1 
 9840  9844     1 
 9840  9845     1 
 9841  9843     1 
 9841  9844     1 
 9841  9845     1 
 9842  9848     1 
 9842  9849     1 
 9843  9846     1 
 9843  9847     1 
 9844  9846     1 
 9844  9847     1 
 9845  9850     1 
 9845  9851     1 
 9845  9852     1 
 9846  9848     1 
 9846  9849     1 
 9847  9853     1 
 9847  9854     1 
 9847  9855     1 
 9848  9850     1 
 9848  9851     1 
 9848  9852     1 
 9849  9856     1 
 9849  9857     1 
 9849  9858     1 
 9850  9853     1 
 9850  9854     1 
 9850  9855     1 
 9851  9853     1 
 9851  9854     1 
 9851  9855     1 
 9852  9859     1 
 9852  9860     1 
 9852  9861     1 
 9853  9856     1 
 9853  9857     1 
 9853  9858     1 
 9854  9856     1 
 9854  9857     1 
 9854  9858     1 
 9855  9862     1 
 9855  9863     1 
 9855  9864     1 
 9856  9859     1 
 9856  9860     1 
 9856  9861     1 
 9857  9859     1 
 9857  9860     1 
 9857  9861     1 
 9858  9865     1 
 9858  9866     1 
 9858  9867     1 
 9859  9862     1 
 9859  9863     1 
 9859  9864     1 
 9860  9862     1 
 9860  9863     1 
 9860  9864     1 
 9861  9868     1 
 9861  9869     1 
 9861  9870     1 
 9862  9865     1 
 9862  9866     1 
 9862  9867     1 
 9863  9865     1 
 9863  9866     1 
 9863  9867     1 
 9864  9871     1 
 9864  9872     1 
 9864  9873     1 
 9865  9868     1 
 9865  9869     1 
 9865  9870     1 
 9866  9868     1 
 9866  9869     1 
 9866  9870     1 
 9868  9871     1 
 9868  9872     1 
 9868  9873     1 
 9869  9871     1 
 9869  9872     1 
 9869  9873     1 
 9874  9881     1 
 9874  9882     1 
 9874  9883     1 
 9875  9878     1 
 9875  9879     1 
 9875  9880     1 
 9876  9878     1 
 9876  9879     1 
 9876  9880     1 
 9877  9884     1 
 9877  9885     1 
 9877  9886     1 
 9878  9881     1 
 9878  9882     1 
 9878  9883     1 
 9879  9881     1 
 9879  9882     1 
 9879  9883     1 
 9880  9887     1 
 9880  9888     1 
 9880  9889     1 
 9881  9884     1 
 9881  9885     1 
 9881  9886     1 
 9882  9884     1 
 9882  9885     1 
 9882  9886     1 
 9883  9890     1 
 9883  9891     1 
 9883  9892     1 
 9884  9887     1 
 9884  9888     1 
 9884  9889     1 
 9885  9887     1 
 9885  9888     1 
 9885  9889     1 
 9886  9893     1 
 9886  9894     1 
 9886  9895     1 
 9887  9890     1 
 9887  9891     1 
 9887  9892     1 
 9888  9890     1 
 9888  9891     1 
 9888  9892     1 
 9889  9896     1 
 9889  9897     1 
 9889  9898     1 
 9890  9893     1 
 9890  9894     1 
 9890  9895     1 
 9891  9893     1 
 9891  9894     1 
 9891  9895     1 
 9892  9899     1 
 9892  9900     1 
 9892  9901     1 
 9893  9896     1 
 9893  9897     1 
 9893  9898     1 
 9894  9896     1 
 9894  9897     1 
 9894  9898     1 
 9895  9902     1 
 9895  9903     1 
 9895  9904     1 
 9896  9899     1 
 9896  9900     1 
 9896  9901     1 
 9897  9899     1 
 9897  9900     1 
 9897  9901     1 
 9898  9905     1 
 9898  9906     1 
 9898  9907     1 
 9899  9902     1 
 9899  9903     1 
 9899  9904     1 
 9900  9902     1 
 9900  9903     1 
 9900  9904     1 
 9901  9908     1 
 9901  9909     1 
 9901  9910     1 
 9902  9905     1 
 9902  9906     1 
 9902  9907     1 
 9903  9905     1 
 9903  9906     1 
 9903  9907     1 
 9904  9911     1 
 9904  9912     1 
 9904  9913     1 
 9905  9908     1 
 9905  9909     1 
 9905  9910     1 
 9906  9908     1 
 9906  9909     1 
 9906  9910     1 
 9907  9914     1 
 9907  9915     1 
 9907  9916     1 
 9908  9911     1 
 9908  9912     1 
 9908  9913     1 
 9909  9911     1 
 9909  9912     1 
 9909  9913     1 
 9911  9914     1 
 9911  9915     1 
 9911  9916     1 
 9912  9914     1 
 9912  9915     1 
 9912  9916     1 
 9917  9934     1 
 9917  9935     1 
 9917  9939     1 
 9918  9922     1 
 9918  9923     1 
 9918  9924     1 
 9918  9926     1 
 9918  9927     1 
 9918  9928     1 
 9918  9930     1 
 9918  9931     1 
 9918  9932     1 
 9918  9936     1 
 9919  9921     1 
 9919  9925     1 
 9919  9929     1 
 9919  9934     1 
 9919  9935     1 
 9919  9939     1 
 9920  9921     1 
 9920  9925     1 
 9920  9929     1 
 9920  9934     1 
 9920  9935     1 
 9920  9939     1 
 9921  9926     1 
 9921  9927     1 
 9921  9928     1 
 9921  9930     1 
 9921  9931     1 
 9921  9932     1 
 9921  9933     1 
 9922  9925     1 
 9922  9929     1 
 9923  9925     1 
 9923  9929     1 
 9924  9925     1 
 9924  9929     1 
 9925  9930     1 
 9925  9931     1 
 9925  9932     1 
 9925  9933     1 
 9926  9929     1 
 9927  9929     1 
 9928  9929     1 
 9929  9933     1 
 9933  9937     1 
 9933  9938     1 
 9933  9940     1 
 9934  9936     1 
 9935  9936     1 
 9936  9942     1 
 9936  9943     1 
 9936  9944     1 
 9937  9941     1 
 9938  9941     1 
 9939  9941     1 
 9940  9945     1 
 9940  9946     1 
 9940  9952     1 
 9941  9947     1 
 9941  9953     1 
 9941  9954     1 
 9941  9955     1 
 9942  9945     1 
 9942  9946     1 
 9942  9952     1 
 9943  9945     1 
 9943  9946     1 
 9943  9952     1 
 9944  9948     1 
 9944  9949     1 
 9944  9956     1 
 9945  9947     1 
 9945  9953     1 
 9945  9954     1 
 9945  9955     1 
 9946  9950     1 
 9946  9951     1 
 9946  9953     1 
 9946  9954     1 
 9946  9955     1 
 9946  9961     1 
 9947  9952     1 
 9947  9962     1 
 9947  9963     1 
 9947  9964     1 
 9948  9950     1 
 9948  9951     1 
 9948  9961     1 
 9949  9965     1 
 9949  9966     1 
 9949  9967     1 
 9950  9962     1 
 9950  9963     1 
 9950  9964     1 
 9951  9962     1 
 9951  9963     1 
 9951  9964     1 
 9952  9957     1 
 9952  9958     1 
 9953  9956     1 
 9954  9956     1 
 9955  9959     1 
 9955  9960     1 
 9955 10008     1 
 9956 10009     1 
 9956 10010     1 
 9956 10011     1 
 9957  9959     1 
 9957  9960     1 
 9957 10008     1 
 9958 10012     1 
 9958 10013     1 
 9958 10014     1 
 9959 10009     1 
 9959 10010     1 
 9959 10011     1 
 9960 10009     1 
 9960 10010     1 
 9960 10011     1 
 9961  9968     1 
 9961  9969     1 
 9961  9970     1 
 9962  9965     1 
 9962  9966     1 
 9962  9967     1 
 9963  9965     1 
 9963  9966     1 
 9963  9967     1 
 9964  9971     1 
 9964  9972     1 
 9964  9973     1 
 9965  9968     1 
 9965  9969     1 
 9965  9970     1 
 9966  9968     1 
 9966  9969     1 
 9966  9970     1 
 9967  9974     1 
 9967  9975     1 
 9967  9976     1 
 9968  9971     1 
 9968  9972     1 
 9968  9973     1 
 9969  9971     1 
 9969  9972     1 
 9969  9973     1 
 9970  9977     1 
 9970  9978     1 
 9970  9979     1 
 9971  9974     1 
 9971  9975     1 
 9971  9976     1 
 9972  9974     1 
 9972  9975     1 
 9972  9976     1 
 9973  9980     1 
 9973  9981     1 
 9974  9977     1 
 9974  9978     1 
 9974  9979     1 
 9975  9977     1 
 9975  9978     1 
 9975  9979     1 
 9976  9982     1 
 9976  9983     1 
 9977  9980     1 
 9977  9981     1 
 9978  9980     1 
 9978  9981     1 
 9979  9984     1 
 9979  9985     1 
 9979  9986     1 
 9980  9982     1 
 9980  9983     1 
 9981  9987     1 
 9981  9988     1 
 9981  9989     1 
 9982  9984     1 
 9982  9985     1 
 9982  9986     1 
 9983  9990     1 
 9983  9991     1 
 9983  9992     1 
 9984  9987     1 
 9984  9988     1 
 9984  9989     1 
 9985  9987     1 
 9985  9988     1 
 9985  9989     1 
 9986  9993     1 
 9986  9994     1 
 9986  9995     1 
 9987  9990     1 
 9987  9991     1 
 9987  9992     1 
 9988  9990     1 
 9988  9991     1 
 9988  9992     1 
 9989  9996     1 
 9989  9997     1 
 9989  9998     1 
 9990  9993     1 
 9990  9994     1 
 9990  9995     1 
 9991  9993     1 
 9991  9994     1 
 9991  9995     1 
 9992  9999     1 
 9992 10000     1 
 9992 10001     1 
 9993  9996     1 
 9993  9997     1 
 9993  9998     1 
 9994  9996     1 
 9994  9997     1 
 9994  9998     1 
 9995 10002     1 
 9995 10003     1 
 9995 10004     1 
 9996  9999     1 
 9996 10000     1 
 9996 10001     1 
 9997  9999     1 
 9997 10000     1 
 9997 10001     1 
 9998 10005     1 
 9998 10006     1 
 9998 10007     1 
 9999 10002     1 
 9999 10003     1 
 9999 10004     1 
10000 10002     1 
10000 10003     1 
10000 10004     1 
10002 10005     1 
10002 10006     1 
10002 10007     1 
10003 10005     1 
10003 10006     1 
10003 10007     1 
10008 10015     1 
10008 10016     1 
10008 10017     1 
10009 10012     1 
10009 10013     1 
10009 10014     1 
10010 10012     1 
10010 10013     1 
10010 10014     1 
10011 10018     1 
10011 10019     1 
10011 10020     1 
10012 10015     1 
10012 10016     1 
10012 10017     1 
10013 10015     1 
10013 10016     1 
10013 10017     1 
10014 10021     1 
10014 10022     1 
10014 10023     1 
10015 10018     1 
10015 10019     1 
10015 10020     1 
10016 10018     1 
10016 10019     1 
10016 10020     1 
10017 10024     1 
10017 10025     1 
10017 10026     1 
10018 10021     1 
10018 10022     1 
10018 10023     1 
10019 10021     1 
10019 10022     1 
10019 10023     1 
10020 10027     1 
10020 10028     1 
10020 10029     1 
10021 10024     1 
10021 10025     1 
10021 10026     1 
10022 10024     1 
10022 10025     1 
10022 10026     1 
10023 10030     1 
10023 10031     1 
10023 10032     1 
10024 10027     1 
10024 10028     1 
10024 10029     1 
10025 10027     1 
10025 10028     1 
10025 10029     1 
10026 10033     1 
10026 10034     1 
10026 10035     1 
10027 10030     1 
10027 10031     1 
10027 10032     1 
10028 10030     1 
10028 10031     1 
10028 10032     1 
10029 10036     1 
10029 10037     1 
10029 10038     1 
10030 10033     1 
10030 10034     1 
10030 10035     1 
10031 10033     1 
10031 10034     1 
10031 10035     1 
10032 10039     1 
10032 10040     1 
10032 10041     1 
10033 10036     1 
10033 10037     1 
10033 10038     1 
10034 10036     1 
10034 10037     1 
10034 10038     1 
10035 10042     1 
10035 10043     1 
10035 10044     1 
10036 10039     1 
10036 10040     1 
10036 10041     1 
10037 10039     1 
10037 10040     1 
10037 10041     1 
10038 10045     1 
10038 10046     1 
10038 10047     1 
10039 10042     1 
10039 10043     1 
10039 10044     1 
10040 10042     1 
10040 10043     1 
10040 10044     1 
10041 10048     1 
10041 10049     1 
10041 10050     1 
10042 10045     1 
10042 10046     1 
10042 10047     1 
10043 10045     1 
10043 10046     1 
10043 10047     1 
10045 10048     1 
10045 10049     1 
10045 10050     1 
10046 10048     1 
10046 10049     1 
10046 10050     1 
10051 10068     1 
10051 10069     1 
10051 10073     1 
10052 10056     1 
10052 10057     1 
10052 10058     1 
10052 10060     1 
10052 10061     1 
10052 10062     1 
10052 10064     1 
10052 10065     1 
10052 10066     1 
10052 10070     1 
10053 10055     1 
10053 10059     1 
10053 10063     1 
10053 10068     1 
10053 10069     1 
10053 10073     1 
10054 10055     1 
10054 10059     1 
10054 10063     1 
10054 10068     1 
10054 10069     1 
10054 10073     1 
10055 10060     1 
10055 10061     1 
10055 10062     1 
10055 10064     1 
10055 10065     1 
10055 10066     1 
10055 10067     1 
10056 10059     1 
10056 10063     1 
10057 10059     1 
10057 10063     1 
10058 10059     1 
10058 10063     1 
10059 10064     1 
10059 10065     1 
10059 10066     1 
10059 10067     1 
10060 10063     1 
10061 10063     1 
10062 10063     1 
10063 10067     1 
10067 10071     1 
10067 10072     1 
10067 10074     1 
10068 10070     1 
10069 10070     1 
10070 10076     1 
10070 10077     1 
10070 10078     1 
10071 10075     1 
10072 10075     1 
10073 10075     1 
10074 10079     1 
10074 10080     1 
10074 10086     1 
10075 10081     1 
10075 10087     1 
10075 10088     1 
10075 10089     1 
10076 10079     1 
10076 10080     1 
10076 10086     1 
10077 10079     1 
10077 10080     1 
10077 10086     1 
10078 10082     1 
10078 10083     1 
10078 10090     1 
10079 10081     1 
10079 10087     1 
10079 10088     1 
10079 10089     1 
10080 10084     1 
10080 10085     1 
10080 10087     1 
10080 10088     1 
10080 10089     1 
10080 10095     1 
10081 10086     1 
10081 10096     1 
10081 10097     1 
10081 10098     1 
10082 10084     1 
10082 10085     1 
10082 10095     1 
10083 10099     1 
10083 10100     1 
10083 10101     1 
10084 10096     1 
10084 10097     1 
10084 10098     1 
10085 10096     1 
10085 10097     1 
10085 10098     1 
10086 10091     1 
10086 10092     1 
10087 10090     1 
10088 10090     1 
10089 10093     1 
10089 10094     1 
10089 10142     1 
10090 10143     1 
10090 10144     1 
10090 10145     1 
10091 10093     1 
10091 10094     1 
10091 10142     1 
10092 10146     1 
10092 10147     1 
10092 10148     1 
10093 10143     1 
10093 10144     1 
10093 10145     1 
10094 10143     1 
10094 10144     1 
10094 10145     1 
10095 10102     1 
10095 10103     1 
10095 10104     1 
10096 10099     1 
10096 10100     1 
10096 10101     1 
10097 10099     1 
10097 10100     1 
10097 10101     1 
10098 10105     1 
10098 10106     1 
10098 10107     1 
10099 10102     1 
10099 10103     1 
10099 10104     1 
10100 10102     1 
10100 10103     1 
10100 10104     1 
10101 10108     1 
10101 10109     1 
10101 10110     1 
10102 10105     1 
10102 10106     1 
10102 10107     1 
10103 10105     1 
10103 10106     1 
10103 10107     1 
10104 10111     1 
10104 10112     1 
10104 10113     1 
10105 10108     1 
10105 10109     1 
10105 10110     1 
10106 10108     1 
10106 10109     1 
10106 10110     1 
10107 10114     1 
10107 10115     1 
10108 10111     1 
10108 10112     1 
10108 10113     1 
10109 10111     1 
10109 10112     1 
10109 10113     1 
10110 10116     1 
10110 10117     1 
10111 10114     1 
10111 10115     1 
10112 10114     1 
10112 10115     1 
10113 10118     1 
10113 10119     1 
10113 10120     1 
10114 10116     1 
10114 10117     1 
10115 10121     1 
10115 10122     1 
10115 10123     1 
10116 10118     1 
10116 10119     1 
10116 10120     1 
10117 10124     1 
10117 10125     1 
10117 10126     1 
10118 10121     1 
10118 10122     1 
10118 10123     1 
10119 10121     1 
10119 10122     1 
10119 10123     1 
10120 10127     1 
10120 10128     1 
10120 10129     1 
10121 10124     1 
10121 10125     1 
10121 10126     1 
10122 10124     1 
10122 10125     1 
10122 10126     1 
10123 10130     1 
10123 10131     1 
10123 10132     1 
10124 10127     1 
10124 10128     1 
10124 10129     1 
10125 10127     1 
10125 10128     1 
10125 10129     1 
10126 10133     1 
10126 10134     1 
10126 10135     1 
10127 10130     1 
10127 10131     1 
10127 10132     1 
10128 10130     1 
10128 10131     1 
10128 10132     1 
10129 10136     1 
10129 10137     1 
10129 10138     1 
10130 10133     1 
10130 10134     1 
10130 10135     1 
10131 10133     1 
10131 10134     1 
10131 10135     1 
10132 10139     1 
10132 10140     1 
10132 10141     1 
10133 10136     1 
10133 10137     1 
10133 10138     1 
10134 10136     1 
10134 10137     1 
10134 10138     1 
10136 10139     1 
10136 10140     1 
10136 10141     1 
10137 10139     1 
10137 10140     1 
10137 10141     1 
10142 10149     1 
10142 10150     1 
10142 10151     1 
10143 10146     1 
10143 10147     1 
10143 10148     1 
10144 10146     1 
10144 10147     1 
10144 10148     1 
10145 10152     1 
10145 10153     1 
10145 10154     1 
10146 10149     1 
10146 10150     1 
10146 10151     1 
10147 10149     1 
10147 10150     1 
10147 10151     1 
10148 10155     1 
10148 10156     1 
10148 10157     1 
10149 10152     1 
10149 10153     1 
10149 10154     1 
10150 10152     1 
10150 10153     1 
10150 10154     1 
10151 10158     1 
10151 10159     1 
10151 10160     1 
10152 10155     1 
10152 10156     1 
10152 10157     1 
10153 10155     1 
10153 10156     1 
10153 10157     1 
10154 10161     1 
10154 10162     1 
10154 10163     1 
10155 10158     1 
10155 10159     1 
10155 10160     1 
10156 10158     1 
10156 10159     1 
10156 10160     1 
10157 10164     1 
10157 10165     1 
10157 10166     1 
10158 10161     1 
10158 10162     1 
10158 10163     1 
10159 10161     1 
10159 10162     1 
10159 10163     1 
10160 10167     1 
10160 10168     1 
10160 10169     1 
10161 10164     1 
10161 10165     1 
10161 10166     1 
10162 10164     1 
10162 10165     1 
10162 10166     1 
10163 10170     1 
10163 10171     1 
10163 10172     1 
10164 10167     1 
10164 10168     1 
10164 10169     1 
10165 10167     1 
10165 10168     1 
10165 10169     1 
10166 10173     1 
10166 10174     1 
10166 10175     1 
10167 10170     1 
10167 10171     1 
10167 10172     1 
10168 10170     1 
10168 10171     1 
10168 10172     1 
10169 10176     1 
10169 10177     1 
10169 10178     1 
10170 10173     1 
10170 10174     1 
10170 10175     1 
10171 10173     1 
10171 10174     1 
10171 10175     1 
10172 10179     1 
10172 10180     1 
10172 10181     1 
10173 10176     1 
10173 10177     1 
10173 10178     1 
10174 10176     1 
10174 10177     1 
10174 10178     1 
10175 10182     1 
10175 10183     1 
10175 10184     1 
10176 10179     1 
10176 10180     1 
10176 10181     1 
10177 10179     1 
10177 10180     1 
10177 10181     1 
10179 10182     1 
10179 10183     1 
10179 10184     1 
10180 10182     1 
10180 10183     1 
10180 10184     1 
10185 10202     1 
10185 10203     1 
10185 10207     1 
10186 10190     1 
10186 10191     1 
10186 10192     1 
10186 10194     1 
10186 10195     1 
10186 10196     1 
10186 10198     1 
10186 10199     1 
10186 10200     1 
10186 10204     1 
10187 10189     1 
10187 10193     1 
10187 10197     1 
10187 10202     1 
10187 10203     1 
10187 10207     1 
10188 10189     1 
10188 10193     1 
10188 10197     1 
10188 10202     1 
10188 10203     1 
10188 10207     1 
10189 10194     1 
10189 10195     1 
10189 10196     1 
10189 10198     1 
10189 10199     1 
10189 10200     1 
10189 10201     1 
10190 10193     1 
10190 10197     1 
10191 10193     1 
10191 10197     1 
10192 10193     1 
10192 10197     1 
10193 10198     1 
10193 10199     1 
10193 10200     1 
10193 10201     1 
10194 10197     1 
10195 10197     1 
10196 10197     1 
10197 10201     1 
10201 10205     1 
10201 10206     1 
10201 10208     1 
10202 10204     1 
10203 10204     1 
10204 10210     1 
10204 10211     1 
10204 10212     1 
10205 10209     1 
10206 10209     1 
10207 10209     1 
10208 10213     1 
10208 10214     1 
10208 10220     1 
10209 10215     1 
10209 10221     1 
10209 10222     1 
10209 10223     1 
10210 10213     1 
10210 10214     1 
10210 10220     1 
10211 10213     1 
10211 10214     1 
10211 10220     1 
10212 10216     1 
10212 10217     1 
10212 10224     1 
10213 10215     1 
10213 10221     1 
10213 10222     1 
10213 10223     1 
10214 10218     1 
10214 10219     1 
10214 10221     1 
10214 10222     1 
10214 10223     1 
10214 10229     1 
10215 10220     1 
10215 10230     1 
10215 10231     1 
10215 10232     1 
10216 10218     1 
10216 10219     1 
10216 10229     1 
10217 10233     1 
10217 10234     1 
10217 10235     1 
10218 10230     1 
10218 10231     1 
10218 10232     1 
10219 10230     1 
10219 10231     1 
10219 10232     1 
10220 10225     1 
10220 10226     1 
10221 10224     1 
10222 10224     1 
10223 10227     1 
10223 10228     1 
10223 10276     1 
10224 10277     1 
10224 10278     1 
10224 10279     1 
10225 10227     1 
10225 10228     1 
10225 10276     1 
10226 10280     1 
10226 10281     1 
10226 10282     1 
10227 10277     1 
10227 10278     1 
10227 10279     1 
10228 10277     1 
10228 10278     1 
10228 10279     1 
10229 10236     1 
10229 10237     1 
10229 10238     1 
10230 10233     1 
10230 10234     1 
10230 10235     1 
10231 10233     1 
10231 10234     1 
10231 10235     1 
10232 10239     1 
10232 10240     1 
10232 10241     1 
10233 10236     1 
10233 10237     1 
10233 10238     1 
10234 10236     1 
10234 10237     1 
10234 10238     1 
10235 10242     1 
10235 10243     1 
10235 10244     1 
10236 10239     1 
10236 10240     1 
10236 10241     1 
10237 10239     1 
10237 10240     1 
10237 10241     1 
10238 10245     1 
10238 10246     1 
10238 10247     1 
10239 10242     1 
10239 10243     1 
10239 10244     1 
10240 10242     1 
10240 10243     1 
10240 10244     1 
10241 10248     1 
10241 10249     1 
10242 10245     1 
10242 10246     1 
10242 10247     1 
10243 10245     1 
10243 10246     1 
10243 10247     1 
10244 10250     1 
10244 10251     1 
10245 10248     1 
10245 10249     1 
10246 10248     1 
10246 10249     1 
10247 10252     1 
10247 10253     1 
10247 10254     1 
10248 10250     1 
10248 10251     1 
10249 10255     1 
10249 10256     1 
10249 10257     1 
10250 10252     1 
10250 10253     1 
10250 10254     1 
10251 10258     1 
10251 10259     1 
10251 10260     1 
10252 10255     1 
10252 10256     1 
10252 10257     1 
10253 10255     1 
10253 10256     1 
10253 10257     1 
10254 10261     1 
10254 10262     1 
10254 10263     1 
10255 10258     1 
10255 10259     1 
10255 10260     1 
10256 10258     1 
10256 10259     1 
10256 10260     1 
10257 10264     1 
10257 10265     1 
10257 10266     1 
10258 10261     1 
10258 10262     1 
10258 10263     1 
10259 10261     1 
10259 10262     1 
10259 10263     1 
10260 10267     1 
10260 10268     1 
10260 10269     1 
10261 10264     1 
10261 10265     1 
10261 10266     1 
10262 10264     1 
10262 10265     1 
10262 10266     1 
10263 10270     1 
10263 10271     1 
10263 10272     1 
10264 10267     1 
10264 10268     1 
10264 10269     1 
10265 10267     1 
10265 10268     1 
10265 10269     1 
10266 10273     1 
10266 10274     1 
10266 10275     1 
10267 10270     1 
10267 10271     1 
10267 10272     1 
10268 10270     1 
10268 10271     1 
10268 10272     1 
10270 10273     1 
10270 10274     1 
10270 10275     1 
10271 10273     1 
10271 10274     1 
10271 10275     1 
10276 10283     1 
10276 10284     1 
10276 10285     1 
10277 10280     1 
10277 10281     1 
10277 10282     1 
10278 10280     1 
10278 10281     1 
10278 10282     1 
10279 10286     1 
10279 10287     1 
10279 10288     1 
10280 10283     1 
10280 10284     1 
10280 10285     1 
10281 10283     1 
10281 10284     1 
10281 10285     1 
10282 10289     1 
10282 10290     1 
10282 10291     1 
10283 10286     1 
10283 10287     1 
10283 10288     1 
10284 10286     1 
10284 10287     1 
10284 10288     1 
10285 10292     1 
10285 10293     1 
10285 10294     1 
10286 10289     1 
10286 10290     1 
10286 10291     1 
10287 10289     1 
10287 10290     1 
10287 10291     1 
10288 10295     1 
10288 10296     1 
10288 10297     1 
10289 10292     1 
10289 10293     1 
10289 10294     1 
10290 10292     1 
10290 10293     1 
10290 10294     1 
10291 10298     1 
10291 10299     1 
10291 10300     1 
10292 10295     1 
10292 10296     1 
10292 10297     1 
10293 10295     1 
10293 10296     1 
10293 10297     1 
10294 10301     1 
10294 10302     1 
10294 10303     1 
10295 10298     1 
10295 10299     1 
10295 10300     1 
10296 10298     1 
10296 10299     1 
10296 10300     1 
10297 10304     1 
10297 10305     1 
10297 10306     1 
10298 10301     1 
10298 10302     1 
10298 10303     1 
10299 10301     1 
10299 10302     1 
10299 10303     1 
10300 10307     1 
10300 10308     1 
10300 10309     1 
10301 10304     1 
10301 10305     1 
10301 10306     1 
10302 10304     1 
10302 10305     1 
10302 10306     1 
10303 10310     1 
10303 10311     1 
10303 10312     1 
10304 10307     1 
10304 10308     1 
10304 10309     1 
10305 10307     1 
10305 10308     1 
10305 10309     1 
10306 10313     1 
10306 10314     1 
10306 10315     1 
10307 10310     1 
10307 10311     1 
10307 10312     1 
10308 10310     1 
10308 10311     1 
10308 10312     1 
10309 10316     1 
10309 10317     1 
10309 10318     1 
10310 10313     1 
10310 10314     1 
10310 10315     1 
10311 10313     1 
10311 10314     1 
10311 10315     1 
10313 10316     1 
10313 10317     1 
10313 10318     1 
10314 10316     1 
10314 10317     1 
10314 10318     1 
10319 10336     1 
10319 10337     1 
10319 10341     1 
10320 10324     1 
10320 10325     1 
10320 10326     1 
10320 10328     1 
10320 10329     1 
10320 10330     1 
10320 10332     1 
10320 10333     1 
10320 10334     1 
10320 10338     1 
10321 10323     1 
10321 10327     1 
10321 10331     1 
10321 10336     1 
10321 10337     1 
10321 10341     1 
10322 10323     1 
10322 10327     1 
10322 10331     1 
10322 10336     1 
10322 10337     1 
10322 10341     1 
10323 10328     1 
10323 10329     1 
10323 10330     1 
10323 10332     1 
10323 10333     1 
10323 10334     1 
10323 10335     1 
10324 10327     1 
10324 10331     1 
10325 10327     1 
10325 10331     1 
10326 10327     1 
10326 10331     1 
10327 10332     1 
10327 10333     1 
10327 10334     1 
10327 10335     1 
10328 10331     1 
10329 10331     1 
10330 10331     1 
10331 10335     1 
10335 10339     1 
10335 10340     1 
10335 10342     1 
10336 10338     1 
10337 10338     1 
10338 10344     1 
10338 10345     1 
10338 10346     1 
10339 10343     1 
10340 10343     1 
10341 10343     1 
10342 10347     1 
10342 10348     1 
10342 10354     1 
10343 10349     1 
10343 10355     1 
10343 10356     1 
10343 10357     1 
10344 10347     1 
10344 10348     1 
10344 10354     1 
10345 10347     1 
10345 10348     1 
10345 10354     1 
10346 10350     1 
10346 10351     1 
10346 10358     1 
10347 10349     1 
10347 10355     1 
10347 10356     1 
10347 10357     1 
10348 10352     1 
10348 10353     1 
10348 10355     1 
10348 10356     1 
10348 10357     1 
10348 10363     1 
10349 10354     1 
10349 10364     1 
10349 10365     1 
10349 10366     1 
10350 10352     1 
10350 10353     1 
10350 10363     1 
10351 10367     1 
10351 10368     1 
10351 10369     1 
10352 10364     1 
10352 10365     1 
10352 10366     1 
10353 10364     1 
10353 10365     1 
10353 10366     1 
10354 10359     1 
10354 10360     1 
10355 10358     1 
10356 10358     1 
10357 10361     1 
10357 10362     1 
10357 10410     1 
10358 10411     1 
10358 10412     1 
10358 10413     1 
10359 10361     1 
10359 10362     1 
10359 10410     1 
10360 10414     1 
10360 10415     1 
10360 10416     1 
10361 10411     1 
10361 10412     1 
10361 10413     1 
10362 10411     1 
10362 10412     1 
10362 10413     1 
10363 10370     1 
10363 10371     1 
10363 10372     1 
10364 10367     1 
10364 10368     1 
10364 10369     1 
10365 10367     1 
10365 10368     1 
10365 10369     1 
10366 10373     1 
10366 10374     1 
10366 10375     1 
10367 10370     1 
10367 10371     1 
10367 10372     1 
10368 10370     1 
10368 10371     1 
10368 10372     1 
10369 10376     1 
10369 10377     1 
10369 10378     1 
10370 10373     1 
10370 10374     1 
10370 10375     1 
10371 10373     1 
10371 10374     1 
10371 10375     1 
10372 10379     1 
10372 10380     1 
10372 10381     1 
10373 10376     1 
10373 10377     1 
10373 10378     1 
10374 10376     1 
10374 10377     1 
10374 10378     1 
10375 10382     1 
10375 10383     1 
10376 10379     1 
10376 10380     1 
10376 10381     1 
10377 10379     1 
10377 10380     1 
10377 10381     1 
10378 10384     1 
10378 10385     1 
10379 10382     1 
10379 10383     1 
10380 10382     1 
10380 10383     1 
10381 10386     1 
10381 10387     1 
10381 10388     1 
10382 10384     1 
10382 10385     1 
10383 10389     1 
10383 10390     1 
10383 10391     1 
10384 10386     1 
10384 10387     1 
10384 10388     1 
10385 10392     1 
10385 10393     1 
10385 10394     1 
10386 10389     1 
10386 10390     1 
10386 10391     1 
10387 10389     1 
10387 10390     1 
10387 10391     1 
10388 10395     1 
10388 10396     1 
10388 10397     1 
10389 10392     1 
10389 10393     1 
10389 10394     1 
10390 10392     1 
10390 10393     1 
10390 10394     1 
10391 10398     1 
10391 10399     1 
10391 10400     1 
10392 10395     1 
10392 10396     1 
10392 10397     1 
10393 10395     1 
10393 10396     1 
10393 10397     1 
10394 10401     1 
10394 10402     1 
10394 10403     1 
10395 10398     1 
10395 10399     1 
10395 10400     1 
10396 10398     1 
10396 10399     1 
10396 10400     1 
10397 10404     1 
10397 10405     1 
10397 10406     1 
10398 10401     1 
10398 10402     1 
10398 10403     1 
10399 10401     1 
10399 10402     1 
10399 10403     1 
10400 10407     1 
10400 10408     1 
10400 10409     1 
10401 10404     1 
10401 10405     1 
10401 10406     1 
10402 10404     1 
10402 10405     1 
10402 10406     1 
10404 10407     1 
10404 10408     1 
10404 10409     1 
10405 10407     1 
10405 10408     1 
10405 10409     1 
10410 10417     1 
10410 10418     1 
10410 10419     1 
10411 10414     1 
10411 10415     1 
10411 10416     1 
10412 10414     1 
10412 10415     1 
10412 10416     1 
10413 10420     1 
10413 10421     1 
10413 10422     1 
10414 10417     1 
10414 10418     1 
10414 10419     1 
10415 10417     1 
10415 10418     1 
10415 10419     1 
10416 10423     1 
10416 10424     1 
10416 10425     1 
10417 10420     1 
10417 10421     1 
10417 10422     1 
10418 10420     1 
10418 10421     1 
10418 10422     1 
10419 10426     1 
10419 10427     1 
10419 10428     1 
10420 10423     1 
10420 10424     1 
10420 10425     1 
10421 10423     1 
10421 10424     1 
10421 10425     1 
10422 10429     1 
10422 10430     1 
10422 10431     1 
10423 10426     1 
10423 10427     1 
10423 10428     1 
10424 10426     1 
10424 10427     1 
10424 10428     1 
10425 10432     1 
10425 10433     1 
10425 10434     1 
10426 10429     1 
10426 10430     1 
10426 10431     1 
10427 10429     1 
10427 10430     1 
10427 10431     1 
10428 10435     1 
10428 10436     1 
10428 10437     1 
10429 10432     1 
10429 10433     1 
10429 10434     1 
10430 10432     1 
10430 10433     1 
10430 10434     1 
10431 10438     1 
10431 10439     1 
10431 10440     1 
10432 10435     1 
10432 10436     1 
10432 10437     1 
10433 10435     1 
10433 10436     1 
10433 10437     1 
10434 10441     1 
10434 10442     1 
10434 10443     1 
10435 10438     1 
10435 10439     1 
10435 10440     1 
10436 10438     1 
10436 10439     1 
10436 10440     1 
10437 10444     1 
10437 10445     1 
10437 10446     1 
10438 10441     1 
10438 10442     1 
10438 10443     1 
10439 10441     1 
10439 10442     1 
10439 10443     1 
10440 10447     1 
10440 10448     1 
10440 10449     1 
10441 10444     1 
10441 10445     1 
10441 10446     1 
10442 10444     1 
10442 10445     1 
10442 10446     1 
10443 10450     1 
10443 10451     1 
10443 10452     1 
10444 10447     1 
10444 10448     1 
10444 10449     1 
10445 10447     1 
10445 10448     1 
10445 10449     1 
10447 10450     1 
10447 10451     1 
10447 10452     1 
10448 10450     1 
10448 10451     1 
10448 10452     1 
10453 10470     1 
10453 10471     1 
10453 10475     1 
10454 10458     1 
10454 10459     1 
10454 10460     1 
10454 10462     1 
10454 10463     1 
10454 10464     1 
10454 10466     1 
10454 10467     1 
10454 10468     1 
10454 10472     1 
10455 10457     1 
10455 10461     1 
10455 10465     1 
10455 10470     1 
10455 10471     1 
10455 10475     1 
10456 10457     1 
10456 10461     1 
10456 10465     1 
10456 10470     1 
10456 10471     1 
10456 10475     1 
10457 10462     1 
10457 10463     1 
10457 10464     1 
10457 10466     1 
10457 10467     1 
10457 10468     1 
10457 10469     1 
10458 10461     1 
10458 10465     1 
10459 10461     1 
10459 10465     1 
10460 10461     1 
10460 10465     1 
10461 10466     1 
10461 10467     1 
10461 10468     1 
10461 10469     1 
10462 10465     1 
10463 10465     1 
10464 10465     1 
10465 10469     1 
10469 10473     1 
10469 10474     1 
10469 10476     1 
10470 10472     1 
10471 10472     1 
10472 10478     1 
10472 10479     1 
10472 10480     1 
10473 10477     1 
10474 10477     1 
10475 10477     1 
10476 10481     1 
10476 10482     1 
10476 10488     1 
10477 10483     1 
10477 10489     1 
10477 10490     1 
10477 10491     1 
10478 10481     1 
10478 10482     1 
10478 10488     1 
10479 10481     1 
10479 10482     1 
10479 10488     1 
10480 10484     1 
10480 10485     1 
10480 10492     1 
10481 10483     1 
10481 10489     1 
10481 10490     1 
10481 10491     1 
10482 10486     1 
10482 10487     1 
10482 10489     1 
10482 10490     1 
10482 10491     1 
10482 10497     1 
10483 10488     1 
10483 10498     1 
10483 10499     1 
10483 10500     1 
10484 10486     1 
10484 10487     1 
10484 10497     1 
10485 10501     1 
10485 10502     1 
10485 10503     1 
10486 10498     1 
10486 10499     1 
10486 10500     1 
10487 10498     1 
10487 10499     1 
10487 10500     1 
10488 10493     1 
10488 10494     1 
10489 10492     1 
10490 10492     1 
10491 10495     1 
10491 10496     1 
10491 10544     1 
10492 10545     1 
10492 10546     1 
10492 10547     1 
10493 10495     1 
10493 10496     1 
10493 10544     1 
10494 10548     1 
10494 10549     1 
10494 10550     1 
10495 10545     1 
10495 10546     1 
10495 10547     1 
10496 10545     1 
10496 10546     1 
10496 10547     1 
10497 10504     1 
10497 10505     1 
10497 10506     1 
10498 10501     1 
10498 10502     1 
10498 10503     1 
10499 10501     1 
10499 10502     1 
10499 10503     1 
10500 10507     1 
10500 10508     1 
10500 10509     1 
10501 10504     1 
10501 10505     1 
10501 10506     1 
10502 10504     1 
10502 10505     1 
10502 10506     1 
10503 10510     1 
10503 10511     1 
10503 10512     1 
10504 10507     1 
10504 10508     1 
10504 10509     1 
10505 10507     1 
10505 10508     1 
10505 10509     1 
10506 10513     1 
10506 10514     1 
10506 10515     1 
10507 10510     1 
10507 10511     1 
10507 10512     1 
10508 10510     1 
10508 10511     1 
10508 10512     1 
10509 10516     1 
10509 10517     1 
10510 10513     1 
10510 10514     1 
10510 10515     1 
10511 10513     1 
10511 10514     1 
10511 10515     1 
10512 10518     1 
10512 10519     1 
10513 10516     1 
10513 10517     1 
10514 10516     1 
10514 10517     1 
10515 10520     1 
10515 10521     1 
10515 10522     1 
10516 10518     1 
10516 10519     1 
10517 10523     1 
10517 10524     1 
10517 10525     1 
10518 10520     1 
10518 10521     1 
10518 10522     1 
10519 10526     1 
10519 10527     1 
10519 10528     1 
10520 10523     1 
10520 10524     1 
10520 10525     1 
10521 10523     1 
10521 10524     1 
10521 10525     1 
10522 10529     1 
10522 10530     1 
10522 10531     1 
10523 10526     1 
10523 10527     1 
10523 10528     1 
10524 10526     1 
10524 10527     1 
10524 10528     1 
10525 10532     1 
10525 10533     1 
10525 10534     1 
10526 10529     1 
10526 10530     1 
10526 10531     1 
10527 10529     1 
10527 10530     1 
10527 10531     1 
10528 10535     1 
10528 10536     1 
10528 10537     1 
10529 10532     1 
10529 10533     1 
10529 10534     1 
10530 10532     1 
10530 10533     1 
10530 10534     1 
10531 10538     1 
10531 10539     1 
10531 10540     1 
10532 10535     1 
10532 10536     1 
10532 10537     1 
10533 10535     1 
10533 10536     1 
10533 10537     1 
10534 10541     1 
10534 10542     1 
10534 10543     1 
10535 10538     1 
10535 10539     1 
10535 10540     1 
10536 10538     1 
10536 10539     1 
10536 10540     1 
10538 10541     1 
10538 10542     1 
10538 10543     1 
10539 10541     1 
10539 10542     1 
10539 10543     1 
10544 10551     1 
10544 10552     1 
10544 10553     1 
10545 10548     1 
10545 10549     1 
10545 10550     1 
10546 10548     1 
10546 10549     1 
10546 10550     1 
10547 10554     1 
10547 10555     1 
10547 10556     1 
10548 10551     1 
10548 10552     1 
10548 10553     1 
10549 10551     1 
10549 10552     1 
10549 10553     1 
10550 10557     1 
10550 10558     1 
10550 10559     1 
10551 10554     1 
10551 10555     1 
10551 10556     1 
10552 10554     1 
10552 10555     1 
10552 10556     1 
10553 10560     1 
10553 10561     1 
10553 10562     1 
10554 10557     1 
10554 10558     1 
10554 10559     1 
10555 10557     1 
10555 10558     1 
10555 10559     1 
10556 10563     1 
10556 10564     1 
10556 10565     1 
10557 10560     1 
10557 10561     1 
10557 10562     1 
10558 10560     1 
10558 10561     1 
10558 10562     1 
10559 10566     1 
10559 10567     1 
10559 10568     1 
10560 10563     1 
10560 10564     1 
10560 10565     1 
10561 10563     1 
10561 10564     1 
10561 10565     1 
10562 10569     1 
10562 10570     1 
10562 10571     1 
10563 10566     1 
10563 10567     1 
10563 10568     1 
10564 10566     1 
10564 10567     1 
10564 10568     1 
10565 10572     1 
10565 10573     1 
10565 10574     1 
10566 10569     1 
10566 10570     1 
10566 10571     1 
10567 10569     1 
10567 10570     1 
10567 10571     1 
10568 10575     1 
10568 10576     1 
10568 10577     1 
10569 10572     1 
10569 10573     1 
10569 10574     1 
10570 10572     1 
10570 10573     1 
10570 10574     1 
10571 10578     1 
10571 10579     1 
10571 10580     1 
10572 10575     1 
10572 10576     1 
10572 10577     1 
10573 10575     1 
10573 10576     1 
10573 10577     1 
10574 10581     1 
10574 10582     1 
10574 10583     1 
10575 10578     1 
10575 10579     1 
10575 10580     1 
10576 10578     1 
10576 10579     1 
10576 10580     1 
10577 10584     1 
10577 10585     1 
10577 10586     1 
10578 10581     1 
10578 10582     1 
10578 10583     1 
10579 10581     1 
10579 10582     1 
10579 10583     1 
10581 10584     1 
10581 10585     1 
10581 10586     1 
10582 10584     1 
10582 10585     1 
10582 10586     1 
10587 10604     1 
10587 10605     1 
10587 10609     1 
10588 10592     1 
10588 10593     1 
10588 10594     1 
10588 10596     1 
10588 10597     1 
10588 10598     1 
10588 10600     1 
10588 10601     1 
10588 10602     1 
10588 10606     1 
10589 10591     1 
10589 10595     1 
10589 10599     1 
10589 10604     1 
10589 10605     1 
10589 10609     1 
10590 10591     1 
10590 10595     1 
10590 10599     1 
10590 10604     1 
10590 10605     1 
10590 10609     1 
10591 10596     1 
10591 10597     1 
10591 10598     1 
10591 10600     1 
10591 10601     1 
10591 10602     1 
10591 10603     1 
10592 10595     1 
10592 10599     1 
10593 10595     1 
10593 10599     1 
10594 10595     1 
10594 10599     1 
10595 10600     1 
10595 10601     1 
10595 10602     1 
10595 10603     1 
10596 10599     1 
10597 10599     1 
10598 10599     1 
10599 10603     1 
10603 10607     1 
10603 10608     1 
10603 10610     1 
10604 10606     1 
10605 10606     1 
10606 10612     1 
10606 10613     1 
10606 10614     1 
10607 10611     1 
10608 10611     1 
10609 10611     1 
10610 10615     1 
10610 10616     1 
10610 10622     1 
10611 10617     1 
10611 10623     1 
10611 10624     1 
10611 10625     1 
10612 10615     1 
10612 10616     1 
10612 10622     1 
10613 10615     1 
10613 10616     1 
10613 10622     1 
10614 10618     1 
10614 10619     1 
10614 10626     1 
10615 10617     1 
10615 10623     1 
10615 10624     1 
10615 10625     1 
10616 10620     1 
10616 10621     1 
10616 10623     1 
10616 10624     1 
10616 10625     1 
10616 10631     1 
10617 10622     1 
10617 10632     1 
10617 10633     1 
10617 10634     1 
10618 10620     1 
10618 10621     1 
10618 10631     1 
10619 10635     1 
10619 10636     1 
10619 10637     1 
10620 10632     1 
10620 10633     1 
10620 10634     1 
10621 10632     1 
10621 10633     1 
10621 10634     1 
10622 10627     1 
10622 10628     1 
10623 10626     1 
10624 10626     1 
10625 10629     1 
10625 10630     1 
10625 10678     1 
10626 10679     1 
10626 10680     1 
10626 10681     1 
10627 10629     1 
10627 10630     1 
10627 10678     1 
10628 10682     1 
10628 10683     1 
10628 10684     1 
10629 10679     1 
10629 10680     1 
10629 10681     1 
10630 10679     1 
10630 10680     1 
10630 10681     1 
10631 10638     1 
10631 10639     1 
10631 10640     1 
10632 10635     1 
10632 10636     1 
10632 10637     1 
10633 10635     1 
10633 10636     1 
10633 10637     1 
10634 10641     1 
10634 10642     1 
10634 10643     1 
10635 10638     1 
10635 10639     1 
10635 10640     1 
10636 10638     1 
10636 10639     1 
10636 10640     1 
10637 10644     1 
10637 10645     1 
10637 10646     1 
10638 10641     1 
10638 10642     1 
10638 10643     1 
10639 10641     1 
10639 10642     1 
10639 10643     1 
10640 10647     1 
10640 10648     1 
10640 10649     1 
10641 10644     1 
10641 10645     1 
10641 10646     1 
10642 10644     1 
10642 10645     1 
10642 10646     1 
10643 10650     1 
10643 10651     1 
10644 10647     1 
10644 10648     1 
10644 10649     1 
10645 10647     1 
10645 10648     1 
10645 10649     1 
10646 10652     1 
10646 10653     1 
10647 10650     1 
10647 10651     1 
10648 10650     1 
10648 10651     1 
10649 10654     1 
10649 10655     1 
10649 10656     1 
10650 10652     1 
10650 10653     1 
10651 10657     1 
10651 10658     1 
10651 10659     1 
10652 10654     1 
10652 10655     1 
10652 10656     1 
10653 10660     1 
10653 10661     1 
10653 10662     1 
10654 10657     1 
10654 10658     1 
10654 10659     1 
10655 10657     1 
10655 10658     1 
10655 10659     1 
10656 10663     1 
10656 10664     1 
10656 10665     1 
10657 10660     1 
10657 10661     1 
10657 10662     1 
10658 10660     1 
10658 10661     1 
10658 10662     1 
10659 10666     1 
10659 10667     1 
10659 10668     1 
10660 10663     1 
10660 10664     1 
10660 10665     1 
10661 10663     1 
10661 10664     1 
10661 10665     1 
10662 10669     1 
10662 10670     1 
10662 10671     1 
10663 10666     1 
10663 10667     1 
10663 10668     1 
10664 10666     1 
10664 10667     1 
10664 10668     1 
10665 10672     1 
10665 10673     1 
10665 10674     1 
10666 10669     1 
10666 10670     1 
10666 10671     1 
10667 10669     1 
10667 10670     1 
10667 10671     1 
10668 10675     1 
10668 10676     1 
10668 10677     1 
10669 10672     1 
10669 10673     1 
10669 10674     1 
10670 10672     1 
10670 10673     1 
10670 10674     1 
10672 10675     1 
10672 10676     1 
10672 10677     1 
10673 10675     1 
10673 10676     1 
10673 10677     1 
10678 10685     1 
10678 10686     1 
10678 10687     1 
10679 10682     1 
10679 10683     1 
10679 10684     1 
10680 10682     1 
10680 10683     1 
10680 10684     1 
10681 10688     1 
10681 10689     1 
10681 10690     1 
10682 10685     1 
10682 10686     1 
10682 10687     1 
10683 10685     1 
10683 10686     1 
10683 10687     1 
10684 10691     1 
10684 10692     1 
10684 10693     1 
10685 10688     1 
10685 10689     1 
10685 10690     1 
10686 10688     1 
10686 10689     1 
10686 10690     1 
10687 10694     1 
10687 10695     1 
10687 10696     1 
10688 10691     1 
10688 10692     1 
10688 10693     1 
10689 10691     1 
10689 10692     1 
10689 10693     1 
10690 10697     1 
10690 10698     1 
10690 10699     1 
10691 10694     1 
10691 10695     1 
10691 10696     1 
10692 10694     1 
10692 10695     1 
10692 10696     1 
10693 10700     1 
10693 10701     1 
10693 10702     1 
10694 10697     1 
10694 10698     1 
10694 10699     1 
10695 10697     1 
10695 10698     1 
10695 10699     1 
10696 10703     1 
10696 10704     1 
10696 10705     1 
10697 10700     1 
10697 10701     1 
10697 10702     1 
10698 10700     1 
10698 10701     1 
10698 10702     1 
10699 10706     1 
10699 10707     1 
10699 10708     1 
10700 10703     1 
10700 10704     1 
10700 10705     1 
10701 10703     1 
10701 10704     1 
10701 10705     1 
10702 10709     1 
10702 10710     1 
10702 10711     1 
10703 10706     1 
10703 10707     1 
10703 10708     1 
10704 10706     1 
10704 10707     1 
10704 10708     1 
10705 10712     1 
10705 10713     1 
10705 10714     1 
10706 10709     1 
10706 10710     1 
10706 10711     1 
10707 10709     1 
10707 10710     1 
10707 10711     1 
10708 10715     1 
10708 10716     1 
10708 10717     1 
10709 10712     1 
10709 10713     1 
10709 10714     1 
10710 10712     1 
10710 10713     1 
10710 10714     1 
10711 10718     1 
10711 10719     1 
10711 10720     1 
10712 10715     1 
10712 10716     1 
10712 10717     1 
10713 10715     1 
10713 10716     1 
10713 10717     1 
10715 10718     1 
10715 10719     1 
10715 10720     1 
10716 10718     1 
10716 10719     1 
10716 10720     1 
10721 10738     1 
10721 10739     1 
10721 10743     1 
10722 10726     1 
10722 10727     1 
10722 10728     1 
10722 10730     1 
10722 10731     1 
10722 10732     1 
10722 10734     1 
10722 10735     1 
10722 10736     1 
10722 10740     1 
10723 10725     1 
10723 10729     1 
10723 10733     1 
10723 10738     1 
10723 10739     1 
10723 10743     1 
10724 10725     1 
10724 10729     1 
10724 10733     1 
10724 10738     1 
10724 10739     1 
10724 10743     1 
10725 10730     1 
10725 10731     1 
10725 10732     1 
10725 10734     1 
10725 10735     1 
10725 10736     1 
10725 10737     1 
10726 10729     1 
10726 10733     1 
10727 10729     1 
10727 10733     1 
10728 10729     1 
10728 10733     1 
10729 10734     1 
10729 10735     1 
10729 10736     1 
10729 10737     1 
10730 10733     1 
10731 10733     1 
10732 10733     1 
10733 10737     1 
10737 10741     1 
10737 10742     1 
10737 10744     1 
10738 10740     1 
10739 10740     1 
10740 10746     1 
10740 10747     1 
10740 10748     1 
10741 10745     1 
10742 10745     1 
10743 10745     1 
10744 10749     1 
10744 10750     1 
10744 10756     1 
10745 10751     1 
10745 10757     1 
10745 10758     1 
10745 10759     1 
10746 10749     1 
10746 10750     1 
10746 10756     1 
10747 10749     1 
10747 10750     1 
10747 10756     1 
10748 10752     1 
10748 10753     1 
10748 10760     1 
10749 10751     1 
10749 10757     1 
10749 10758     1 
10749 10759     1 
10750 10754     1 
10750 10755     1 
10750 10757     1 
10750 10758     1 
10750 10759     1 
10750 10765     1 
10751 10756     1 
10751 10766     1 
10751 10767     1 
10751 10768     1 
10752 10754     1 
10752 10755     1 
10752 10765     1 
10753 10769     1 
10753 10770     1 
10753 10771     1 
10754 10766     1 
10754 10767     1 
10754 10768     1 
10755 10766     1 
10755 10767     1 
10755 10768     1 
10756 10761     1 
10756 10762     1 
10757 10760     1 
10758 10760     1 
10759 10763     1 
10759 10764     1 
10759 10812     1 
10760 10813     1 
10760 10814     1 
10760 10815     1 
10761 10763     1 
10761 10764     1 
10761 10812     1 
10762 10816     1 
10762 10817     1 
10762 10818     1 
10763 10813     1 
10763 10814     1 
10763 10815     1 
10764 10813     1 
10764 10814     1 
10764 10815     1 
10765 10772     1 
10765 10773     1 
10765 10774     1 
10766 10769     1 
10766 10770     1 
10766 10771     1 
10767 10769     1 
10767 10770     1 
10767 10771     1 
10768 10775     1 
10768 10776     1 
10768 10777     1 
10769 10772     1 
10769 10773     1 
10769 10774     1 
10770 10772     1 
10770 10773     1 
10770 10774     1 
10771 10778     1 
10771 10779     1 
10771 10780     1 
10772 10775     1 
10772 10776     1 
10772 10777     1 
10773 10775     1 
10773 10776     1 
10773 10777     1 
10774 10781     1 
10774 10782     1 
10774 10783     1 
10775 10778     1 
10775 10779     1 
10775 10780     1 
10776 10778     1 
10776 10779     1 
10776 10780     1 
10777 10784     1 
10777 10785     1 
10778 10781     1 
10778 10782     1 
10778 10783     1 
10779 10781     1 
10779 10782     1 
10779 10783     1 
10780 10786     1 
10780 10787     1 
10781 10784     1 
10781 10785     1 
10782 10784     1 
10782 10785     1 
10783 10788     1 
10783 10789     1 
10783 10790     1 
10784 10786     1 
10784 10787     1 
10785 10791     1 
10785 10792     1 
10785 10793     1 
10786 10788     1 
10786 10789     1 
10786 10790     1 
10787 10794     1 
10787 10795     1 
10787 10796     1 
10788 10791     1 
10788 10792     1 
10788 10793     1 
10789 10791     1 
10789 10792     1 
10789 10793     1 
10790 10797     1 
10790 10798     1 
10790 10799     1 
10791 10794     1 
10791 10795     1 
10791 10796     1 
10792 10794     1 
10792 10795     1 
10792 10796     1 
10793 10800     1 
10793 10801     1 
10793 10802     1 
10794 10797     1 
10794 10798     1 
10794 10799     1 
10795 10797     1 
10795 10798     1 
10795 10799     1 
10796 10803     1 
10796 10804     1 
10796 10805     1 
10797 10800     1 
10797 10801     1 
10797 10802     1 
10798 10800     1 
10798 10801     1 
10798 10802     1 
10799 10806     1 
10799 10807     1 
10799 10808     1 
10800 10803     1 
10800 10804     1 
10800 10805     1 
10801 10803     1 
10801 10804     1 
10801 10805     1 
10802 10809     1 
10802 10810     1 
10802 10811     1 
10803 10806     1 
10803 10807     1 
10803 10808     1 
10804 10806     1 
10804 10807     1 
10804 10808     1 
10806 10809     1 
10806 10810     1 
10806 10811     1 
10807 10809     1 
10807 10810     1 
10807 10811     1 
10812 10819     1 
10812 10820     1 
10812 10821     1 
10813 10816     1 
10813 10817     1 
10813 10818     1 
10814 10816     1 
10814 10817     1 
10814 10818     1 
10815 10822     1 
10815 10823     1 
10815 10824     1 
10816 10819     1 
10816 10820     1 
10816 10821     1 
10817 10819     1 
10817 10820     1 
10817 10821     1 
10818 10825     1 
10818 10826     1 
10818 10827     1 
10819 10822     1 
10819 10823     1 
10819 10824     1 
10820 10822     1 
10820 10823     1 
10820 10824     1 
10821 10828     1 
10821 10829     1 
10821 10830     1 
10822 10825     1 
10822 10826     1 
10822 10827     1 
10823 10825     1 
10823 10826     1 
10823 10827     1 
10824 10831     1 
10824 10832     1 
10824 10833     1 
10825 10828     1 
10825 10829     1 
10825 10830     1 
10826 10828     1 
10826 10829     1 
10826 10830     1 
10827 10834     1 
10827 10835     1 
10827 10836     1 
10828 10831     1 
10828 10832     1 
10828 10833     1 
10829 10831     1 
10829 10832     1 
10829 10833     1 
10830 10837     1 
10830 10838     1 
10830 10839     1 
10831 10834     1 
10831 10835     1 
10831 10836     1 
10832 10834     1 
10832 10835     1 
10832 10836     1 
10833 10840     1 
10833 10841     1 
10833 10842     1 
10834 10837     1 
10834 10838     1 
10834 10839     1 
10835 10837     1 
10835 10838     1 
10835 10839     1 
10836 10843     1 
10836 10844     1 
10836 10845     1 
10837 10840     1 
10837 10841     1 
10837 10842     1 
10838 10840     1 
10838 10841     1 
10838 10842     1 
10839 10846     1 
10839 10847     1 
10839 10848     1 
10840 10843     1 
10840 10844     1 
10840 10845     1 
10841 10843     1 
10841 10844     1 
10841 10845     1 
10842 10849     1 
10842 10850     1 
10842 10851     1 
10843 10846     1 
10843 10847     1 
10843 10848     1 
10844 10846     1 
10844 10847     1 
10844 10848     1 
10845 10852     1 
10845 10853     1 
10845 10854     1 
10846 10849     1 
10846 10850     1 
10846 10851     1 
10847 10849     1 
10847 10850     1 
10847 10851     1 
10849 10852     1 
10849 10853     1 
10849 10854     1 
10850 10852     1 
10850 10853     1 
10850 10854     1 
10855 10872     1 
10855 10873     1 
10855 10877     1 
10856 10860     1 
10856 10861     1 
10856 10862     1 
10856 10864     1 
10856 10865     1 
10856 10866     1 
10856 10868     1 
10856 10869     1 
10856 10870     1 
10856 10874     1 
10857 10859     1 
10857 10863     1 
10857 10867     1 
10857 10872     1 
10857 10873     1 
10857 10877     1 
10858 10859     1 
10858 10863     1 
10858 10867     1 
10858 10872     1 
10858 10873     1 
10858 10877     1 
10859 10864     1 
10859 10865     1 
10859 10866     1 
10859 10868     1 
10859 10869     1 
10859 10870     1 
10859 10871     1 
10860 10863     1 
10860 10867     1 
10861 10863     1 
10861 10867     1 
10862 10863     1 
10862 10867     1 
10863 10868     1 
10863 10869     1 
10863 10870     1 
10863 10871     1 
10864 10867     1 
10865 10867     1 
10866 10867     1 
10867 10871     1 
10871 10875     1 
10871 10876     1 
10871 10878     1 
10872 10874     1 
10873 10874     1 
10874 10880     1 
10874 10881     1 
10874 10882     1 
10875 10879     1 
10876 10879     1 
10877 10879     1 
10878 10883     1 
10878 10884     1 
10878 10890     1 
10879 10885     1 
10879 10891     1 
10879 10892     1 
10879 10893     1 
10880 10883     1 
10880 10884     1 
10880 10890     1 
10881 10883     1 
10881 10884     1 
10881 10890     1 
10882 10886     1 
10882 10887     1 
10882 10894     1 
10883 10885     1 
10883 10891     1 
10883 10892     1 
10883 10893     1 
10884 10888     1 
10884 10889     1 
10884 10891     1 
10884 10892     1 
10884 10893     1 
10884 10899     1 
10885 10890     1 
10885 10900     1 
10885 10901     1 
10885 10902     1 
10886 10888     1 
10886 10889     1 
10886 10899     1 
10887 10903     1 
10887 10904     1 
10887 10905     1 
10888 10900     1 
10888 10901     1 
10888 10902     1 
10889 10900     1 
10889 10901     1 
10889 10902     1 
10890 10895     1 
10890 10896     1 
10891 10894     1 
10892 10894     1 
10893 10897     1 
10893 10898     1 
10893 10946     1 
10894 10947     1 
10894 10948     1 
10894 10949     1 
10895 10897     1 
10895 10898     1 
10895 10946     1 
10896 10950     1 
10896 10951     1 
10896 10952     1 
10897 10947     1 
10897 10948     1 
10897 10949     1 
10898 10947     1 
10898 10948     1 
10898 10949     1 
10899 10906     1 
10899 10907     1 
10899 10908     1 
10900 10903     1 
10900 10904     1 
10900 10905     1 
10901 10903     1 
10901 10904     1 
10901 10905     1 
10902 10909     1 
10902 10910     1 
10902 10911     1 
10903 10906     1 
10903 10907     1 
10903 10908     1 
10904 10906     1 
10904 10907     1 
10904 10908     1 
10905 10912     1 
10905 10913     1 
10905 10914     1 
10906 10909     1 
10906 10910     1 
10906 10911     1 
10907 10909     1 
10907 10910     1 
10907 10911     1 
10908 10915     1 
10908 10916     1 
10908 10917     1 
10909 10912     1 
10909 10913     1 
10909 10914     1 
10910 10912     1 
10910 10913     1 
10910 10914     1 
10911 10918     1 
10911 10919     1 
10912 10915     1 
10912 10916     1 
10912 10917     1 
10913 10915     1 
10913 10916     1 
10913 10917     1 
10914 10920     1 
10914 10921     1 
10915 10918     1 
10915 10919     1 
10916 10918     1 
10916 10919     1 
10917 10922     1 
10917 10923     1 
10917 10924     1 
10918 10920     1 
10918 10921     1 
10919 10925     1 
10919 10926     1 
10919 10927     1 
10920 10922     1 
10920 10923     1 
10920 10924     1 
10921 10928     1 
10921 10929     1 
10921 10930     1 
10922 10925     1 
10922 10926     1 
10922 10927     1 
10923 10925     1 
10923 10926     1 
10923 10927     1 
10924 10931     1 
10924 10932     1 
10924 10933     1 
10925 10928     1 
10925 10929     1 
10925 10930     1 
10926 10928     1 
10926 10929     1 
10926 10930     1 
10927 10934     1 
10927 10935     1 
10927 10936     1 
10928 10931     1 
10928 10932     1 
10928 10933     1 
10929 10931     1 
10929 10932     1 
10929 10933     1 
10930 10937     1 
10930 10938     1 
10930 10939     1 
10931 10934     1 
10931 10935     1 
10931 10936     1 
10932 10934     1 
10932 10935     1 
10932 10936     1 
10933 10940     1 
10933 10941     1 
10933 10942     1 
10934 10937     1 
10934 10938     1 
10934 10939     1 
10935 10937     1 
10935 10938     1 
10935 10939     1 
10936 10943     1 
10936 10944     1 
10936 10945     1 
10937 10940     1 
10937 10941     1 
10937 10942     1 
10938 10940     1 
10938 10941     1 
10938 10942     1 
10940 10943     1 
10940 10944     1 
10940 10945     1 
10941 10943     1 
10941 10944     1 
10941 10945     1 
10946 10953     1 
10946 10954     1 
10946 10955     1 
10947 10950     1 
10947 10951     1 
10947 10952     1 
10948 10950     1 
10948 10951     1 
10948 10952     1 
10949 10956     1 
10949 10957     1 
10949 10958     1 
10950 10953     1 
10950 10954     1 
10950 10955     1 
10951 10953     1 
10951 10954     1 
10951 10955     1 
10952 10959     1 
10952 10960     1 
10952 10961     1 
10953 10956     1 
10953 10957     1 
10953 10958     1 
10954 10956     1 
10954 10957     1 
10954 10958     1 
10955 10962     1 
10955 10963     1 
10955 10964     1 
10956 10959     1 
10956 10960     1 
10956 10961     1 
10957 10959     1 
10957 10960     1 
10957 10961     1 
10958 10965     1 
10958 10966     1 
10958 10967     1 
10959 10962     1 
10959 10963     1 
10959 10964     1 
10960 10962     1 
10960 10963     1 
10960 10964     1 
10961 10968     1 
10961 10969     1 
10961 10970     1 
10962 10965     1 
10962 10966     1 
10962 10967     1 
10963 10965     1 
10963 10966     1 
10963 10967     1 
10964 10971     1 
10964 10972     1 
10964 10973     1 
10965 10968     1 
10965 10969     1 
10965 10970     1 
10966 10968     1 
10966 10969     1 
10966 10970     1 
10967 10974     1 
10967 10975     1 
10967 10976     1 
10968 10971     1 
10968 10972     1 
10968 10973     1 
10969 10971     1 
10969 10972     1 
10969 10973     1 
10970 10977     1 
10970 10978     1 
10970 10979     1 
10971 10974     1 
10971 10975     1 
10971 10976     1 
10972 10974     1 
10972 10975     1 
10972 10976     1 
10973 10980     1 
10973 10981     1 
10973 10982     1 
10974 10977     1 
10974 10978     1 
10974 10979     1 
10975 10977     1 
10975 10978     1 
10975 10979     1 
10976 10983     1 
10976 10984     1 
10976 10985     1 
10977 10980     1 
10977 10981     1 
10977 10982     1 
10978 10980     1 
10978 10981     1 
10978 10982     1 
10979 10986     1 
10979 10987     1 
10979 10988     1 
10980 10983     1 
10980 10984     1 
10980 10985     1 
10981 10983     1 
10981 10984     1 
10981 10985     1 
10983 10986     1 
10983 10987     1 
10983 10988     1 
10984 10986     1 
10984 10987     1 
10984 10988     1 
10989 11006     1 
10989 11007     1 
10989 11011     1 
10990 10994     1 
10990 10995     1 
10990 10996     1 
10990 10998     1 
10990 10999     1 
10990 11000     1 
10990 11002     1 
10990 11003     1 
10990 11004     1 
10990 11008     1 
10991 10993     1 
10991 10997     1 
10991 11001     1 
10991 11006     1 
10991 11007     1 
10991 11011     1 
10992 10993     1 
10992 10997     1 
10992 11001     1 
10992 11006     1 
10992 11007     1 
10992 11011     1 
10993 10998     1 
10993 10999     1 
10993 11000     1 
10993 11002     1 
10993 11003     1 
10993 11004     1 
10993 11005     1 
10994 10997     1 
10994 11001     1 
10995 10997     1 
10995 11001     1 
10996 10997     1 
10996 11001     1 
10997 11002     1 
10997 11003     1 
10997 11004     1 
10997 11005     1 
10998 11001     1 
10999 11001     1 
11000 11001     1 
11001 11005     1 
11005 11009     1 
11005 11010     1 
11005 11012     1 
11006 11008     1 
11007 11008     1 
11008 11014     1 
11008 11015     1 
11008 11016     1 
11009 11013     1 
11010 11013     1 
11011 11013     1 
11012 11017     1 
11012 11018     1 
11012 11024     1 
11013 11019     1 
11013 11025     1 
11013 11026     1 
11013 11027     1 
11014 11017     1 
11014 11018     1 
11014 11024     1 
11015 11017     1 
11015 11018     1 
11015 11024     1 
11016 11020     1 
11016 11021     1 
11016 11028     1 
11017 11019     1 
11017 11025     1 
11017 11026     1 
11017 11027     1 
11018 11022     1 
11018 11023     1 
11018 11025     1 
11018 11026     1 
11018 11027     1 
11018 11033     1 
11019 11024     1 
11019 11034     1 
11019 11035     1 
11019 11036     1 
11020 11022     1 
11020 11023     1 
11020 11033     1 
11021 11037     1 
11021 11038     1 
11021 11039     1 
11022 11034     1 
11022 11035     1 
11022 11036     1 
11023 11034     1 
11023 11035     1 
11023 11036     1 
11024 11029     1 
11024 11030     1 
11025 11028     1 
11026 11028     1 
11027 11031     1 
11027 11032     1 
11027 11080     1 
11028 11081     1 
11028 11082     1 
11028 11083     1 
11029 11031     1 
11029 11032     1 
11029 11080     1 
11030 11084     1 
11030 11085     1 
11030 11086     1 
11031 11081     1 
11031 11082     1 
11031 11083     1 
11032 11081     1 
11032 11082     1 
11032 11083     1 
11033 11040     1 
11033 11041     1 
11033 11042     1 
11034 11037     1 
11034 11038     1 
11034 11039     1 
11035 11037     1 
11035 11038     1 
11035 11039     1 
11036 11043     1 
11036 11044     1 
11036 11045     1 
11037 11040     1 
11037 11041     1 
11037 11042     1 
11038 11040     1 
11038 11041     1 
11038 11042     1 
11039 11046     1 
11039 11047     1 
11039 11048     1 
11040 11043     1 
11040 11044     1 
11040 11045     1 
11041 11043     1 
11041 11044     1 
11041 11045     1 
11042 11049     1 
11042 11050     1 
11042 11051     1 
11043 11046     1 
11043 11047     1 
11043 11048     1 
11044 11046     1 
11044 11047     1 
11044 11048     1 
11045 11052     1 
11045 11053     1 
11046 11049     1 
11046 11050     1 
11046 11051     1 
11047 11049     1 
11047 11050     1 
11047 11051     1 
11048 11054     1 
11048 11055     1 
11049 11052     1 
11049 11053     1 
11050 11052     1 
11050 11053     1 
11051 11056     1 
11051 11057     1 
11051 11058     1 
11052 11054     1 
11052 11055     1 
11053 11059     1 
11053 11060     1 
11053 11061     1 
11054 11056     1 
11054 11057     1 
11054 11058     1 
11055 11062     1 
11055 11063     1 
11055 11064     1 
11056 11059     1 
11056 11060     1 
11056 11061     1 
11057 11059     1 
11057 11060     1 
11057 11061     1 
11058 11065     1 
11058 11066     1 
11058 11067     1 
11059 11062     1 
11059 11063     1 
11059 11064     1 
11060 11062     1 
11060 11063     1 
11060 11064     1 
11061 11068     1 
11061 11069     1 
11061 11070     1 
11062 11065     1 
11062 11066     1 
11062 11067     1 
11063 11065     1 
11063 11066     1 
11063 11067     1 
11064 11071     1 
11064 11072     1 
11064 11073     1 
11065 11068     1 
11065 11069     1 
11065 11070     1 
11066 11068     1 
11066 11069     1 
11066 11070     1 
11067 11074     1 
11067 11075     1 
11067 11076     1 
11068 11071     1 
11068 11072     1 
11068 11073     1 
11069 11071     1 
11069 11072     1 
11069 11073     1 
11070 11077     1 
11070 11078     1 
11070 11079     1 
11071 11074     1 
11071 11075     1 
11071 11076     1 
11072 11074     1 
11072 11075     1 
11072 11076     1 
11074 11077     1 
11074 11078     1 
11074 11079     1 
11075 11077     1 
11075 11078     1 
11075 11079     1 
11080 11087     1 
11080 11088     1 
11080 11089     1 
11081 11084     1 
11081 11085     1 
11081 11086     1 
11082 11084     1 
11082 11085     1 
11082 11086     1 
11083 11090     1 
11083 11091     1 
11083 11092     1 
11084 11087     1 
11084 11088     1 
11084 11089     1 
11085 11087     1 
11085 11088     1 
11085 11089     1 
11086 11093     1 
11086 11094     1 
11086 11095     1 
11087 11090     1 
11087 11091     1 
11087 11092     1 
11088 11090     1 
11088 11091     1 
11088 11092     1 
11089 11096     1 
11089 11097     1 
11089 11098     1 
11090 11093     1 
11090 11094     1 
11090 11095     1 
11091 11093     1 
11091 11094     1 
11091 11095     1 
11092 11099     1 
11092 11100     1 
11092 11101     1 
11093 11096     1 
11093 11097     1 
11093 11098     1 
11094 11096     1 
11094 11097     1 
11094 11098     1 
11095 11102     1 
11095 11103     1 
11095 11104     1 
11096 11099     1 
11096 11100     1 
11096 11101     1 
11097 11099     1 
11097 11100     1 
11097 11101     1 
11098 11105     1 
11098 11106     1 
11098 11107     1 
11099 11102     1 
11099 11103     1 
11099 11104     1 
11100 11102     1 
11100 11103     1 
11100 11104     1 
11101 11108     1 
11101 11109     1 
11101 11110     1 
11102 11105     1 
11102 11106     1 
11102 11107     1 
11103 11105     1 
11103 11106     1 
11103 11107     1 
11104 11111     1 
11104 11112     1 
11104 11113     1 
11105 11108     1 
11105 11109     1 
11105 11110     1 
11106 11108     1 
11106 11109     1 
11106 11110     1 
11107 11114     1 
11107 11115     1 
11107 11116     1 
11108 11111     1 
11108 11112     1 
11108 11113     1 
11109 11111     1 
11109 11112     1 
11109 11113     1 
11110 11117     1 
11110 11118     1 
11110 11119     1 
11111 11114     1 
11111 11115     1 
11111 11116     1 
11112 11114     1 
11112 11115     1 
11112 11116     1 
11113 11120     1 
11113 11121     1 
11113 11122     1 
11114 11117     1 
11114 11118     1 
11114 11119     1 
11115 11117     1 
11115 11118     1 
11115 11119     1 
11117 11120     1 
11117 11121     1 
11117 11122     1 
11118 11120     1 
11118 11121     1 
11118 11122     1 
11123 11140     1 
11123 11141     1 
11123 11145     1 
11124 11128     1 
11124 11129     1 
11124 11130     1 
11124 11132     1 
11124 11133     1 
11124 11134     1 
11124 11136     1 
11124 11137     1 
11124 11138     1 
11124 11142     1 
11125 11127     1 
11125 11131     1 
11125 11135     1 
11125 11140     1 
11125 11141     1 
11125 11145     1 
11126 11127     1 
11126 11131     1 
11126 11135     1 
11126 11140     1 
11126 11141     1 
11126 11145     1 
11127 11132     1 
11127 11133     1 
11127 11134     1 
11127 11136     1 
11127 11137     1 
11127 11138     1 
11127 11139     1 
11128 11131     1 
11128 11135     1 
11129 11131     1 
11129 11135     1 
11130 11131     1 
11130 11135     1 
11131 11136     1 
11131 11137     1 
11131 11138     1 
11131 11139     1 
11132 11135     1 
11133 11135     1 
11134 11135     1 
11135 11139     1 
11139 11143     1 
11139 11144     1 
11139 11146     1 
11140 11142     1 
11141 11142     1 
11142 11148     1 
11142 11149     1 
11142 11150     1 
11143 11147     1 
11144 11147     1 
11145 11147     1 
11146 11151     1 
11146 11152     1 
11146 11158     1 
11147 11153     1 
11147 11159     1 
11147 11160     1 
11147 11161     1 
11148 11151     1 
11148 11152     1 
11148 11158     1 
11149 11151     1 
11149 11152     1 
11149 11158     1 
11150 11154     1 
11150 11155     1 
11150 11162     1 
11151 11153     1 
11151 11159     1 
11151 11160     1 
11151 11161     1 
11152 11156     1 
11152 11157     1 
11152 11159     1 
11152 11160     1 
11152 11161     1 
11152 11167     1 
11153 11158     1 
11153 11168     1 
11153 11169     1 
11153 11170     1 
11154 11156     1 
11154 11157     1 
11154 11167     1 
11155 11171     1 
11155 11172     1 
11155 11173     1 
11156 11168     1 
11156 11169     1 
11156 11170     1 
11157 11168     1 
11157 11169     1 
11157 11170     1 
11158 11163     1 
11158 11164     1 
11159 11162     1 
11160 11162     1 
11161 11165     1 
11161 11166     1 
11161 11214     1 
11162 11215     1 
11162 11216     1 
11162 11217     1 
11163 11165     1 
11163 11166     1 
11163 11214     1 
11164 11218     1 
11164 11219     1 
11164 11220     1 
11165 11215     1 
11165 11216     1 
11165 11217     1 
11166 11215     1 
11166 11216     1 
11166 11217     1 
11167 11174     1 
11167 11175     1 
11167 11176     1 
11168 11171     1 
11168 11172     1 
11168 11173     1 
11169 11171     1 
11169 11172     1 
11169 11173     1 
11170 11177     1 
11170 11178     1 
11170 11179     1 
11171 11174     1 
11171 11175     1 
11171 11176     1 
11172 11174     1 
11172 11175     1 
11172 11176     1 
11173 11180     1 
11173 11181     1 
11173 11182     1 
11174 11177     1 
11174 11178     1 
11174 11179     1 
11175 11177     1 
11175 11178     1 
11175 11179     1 
11176 11183     1 
11176 11184     1 
11176 11185     1 
11177 11180     1 
11177 11181     1 
11177 11182     1 
11178 11180     1 
11178 11181     1 
11178 11182     1 
11179 11186     1 
11179 11187     1 
11180 11183     1 
11180 11184     1 
11180 11185     1 
11181 11183     1 
11181 11184     1 
11181 11185     1 
11182 11188     1 
11182 11189     1 
11183 11186     1 
11183 11187     1 
11184 11186     1 
11184 11187     1 
11185 11190     1 
11185 11191     1 
11185 11192     1 
11186 11188     1 
11186 11189     1 
11187 11193     1 
11187 11194     1 
11187 11195     1 
11188 11190     1 
11188 11191     1 
11188 11192     1 
11189 11196     1 
11189 11197     1 
11189 11198     1 
11190 11193     1 
11190 11194     1 
11190 11195     1 
11191 11193     1 
11191 11194     1 
11191 11195     1 
11192 11199     1 
11192 11200     1 
11192 11201     1 
11193 11196     1 
11193 11197     1 
11193 11198     1 
11194 11196     1 
11194 11197     1 
11194 11198     1 
11195 11202     1 
11195 11203     1 
11195 11204     1 
11196 11199     1 
11196 11200     1 
11196 11201     1 
11197 11199     1 
11197 11200     1 
11197 11201     1 
11198 11205     1 
11198 11206     1 
11198 11207     1 
11199 11202     1 
11199 11203     1 
11199 11204     1 
11200 11202     1 
11200 11203     1 
11200 11204     1 
11201 11208     1 
11201 11209     1 
11201 11210     1 
11202 11205     1 
11202 11206     1 
11202 11207     1 
11203 11205     1 
11203 11206     1 
11203 11207     1 
11204 11211     1 
11204 11212     1 
11204 11213     1 
11205 11208     1 
11205 11209     1 
11205 11210     1 
11206 11208     1 
11206 11209     1 
11206 11210     1 
11208 11211     1 
11208 11212     1 
11208 11213     1 
11209 11211     1 
11209 11212     1 
11209 11213     1 
11214 11221     1 
11214 11222     1 
11214 11223     1 
11215 11218     1 
11215 11219     1 
11215 11220     1 
11216 11218     1 
11216 11219     1 
11216 11220     1 
11217 11224     1 
11217 11225     1 
11217 11226     1 
11218 11221     1 
11218 11222     1 
11218 11223     1 
11219 11221     1 
11219 11222     1 
11219 11223     1 
11220 11227     1 
11220 11228     1 
11220 11229     1 
11221 11224     1 
11221 11225     1 
11221 11226     1 
11222 11224     1 
11222 11225     1 
11222 11226     1 
11223 11230     1 
11223 11231     1 
11223 11232     1 
11224 11227     1 
11224 11228     1 
11224 11229     1 
11225 11227     1 
11225 11228     1 
11225 11229     1 
11226 11233     1 
11226 11234     1 
11226 11235     1 
11227 11230     1 
11227 11231     1 
11227 11232     1 
11228 11230     1 
11228 11231     1 
11228 11232     1 
11229 11236     1 
11229 11237     1 
11229 11238     1 
11230 11233     1 
11230 11234     1 
11230 11235     1 
11231 11233     1 
11231 11234     1 
11231 11235     1 
11232 11239     1 
11232 11240     1 
11232 11241     1 
11233 11236     1 
11233 11237     1 
11233 11238     1 
11234 11236     1 
11234 11237     1 
11234 11238     1 
11235 11242     1 
11235 11243     1 
11235 11244     1 
11236 11239     1 
11236 11240     1 
11236 11241     1 
11237 11239     1 
11237 11240     1 
11237 11241     1 
11238 11245     1 
11238 11246     1 
11238 11247     1 
11239 11242     1 
11239 11243     1 
11239 11244     1 
11240 11242     1 
11240 11243     1 
11240 11244     1 
11241 11248     1 
11241 11249     1 
11241 11250     1 
11242 11245     1 
11242 11246     1 
11242 11247     1 
11243 11245     1 
11243 11246     1 
11243 11247     1 
11244 11251     1 
11244 11252     1 
11244 11253     1 
11245 11248     1 
11245 11249     1 
11245 11250     1 
11246 11248     1 
11246 11249     1 
11246 11250     1 
11247 11254     1 
11247 11255     1 
11247 11256     1 
11248 11251     1 
11248 11252     1 
11248 11253     1 
11249 11251     1 
11249 11252     1 
11249 11253     1 
11251 11254     1 
11251 11255     1 
11251 11256     1 
11252 11254     1 
11252 11255     1 
11252 11256     1 
11257 11274     1 
11257 11275     1 
11257 11279     1 
11258 11262     1 
11258 11263     1 
11258 11264     1 
11258 11266     1 
11258 11267     1 
11258 11268     1 
11258 11270     1 
11258 11271     1 
11258 11272     1 
11258 11276     1 
11259 11261     1 
11259 11265     1 
11259 11269     1 
11259 11274     1 
11259 11275     1 
11259 11279     1 
11260 11261     1 
11260 11265     1 
11260 11269     1 
11260 11274     1 
11260 11275     1 
11260 11279     1 
11261 11266     1 
11261 11267     1 
11261 11268     1 
11261 11270     1 
11261 11271     1 
11261 11272     1 
11261 11273     1 
11262 11265     1 
11262 11269     1 
11263 11265     1 
11263 11269     1 
11264 11265     1 
11264 11269     1 
11265 11270     1 
11265 11271     1 
11265 11272     1 
11265 11273     1 
11266 11269     1 
11267 11269     1 
11268 11269     1 
11269 11273     1 
11273 11277     1 
11273 11278     1 
11273 11280     1 
11274 11276     1 
11275 11276     1 
11276 11282     1 
11276 11283     1 
11276 11284     1 
11277 11281     1 
11278 11281     1 
11279 11281     1 
11280 11285     1 
11280 11286     1 
11280 11292     1 
11281 11287     1 
11281 11293     1 
11281 11294     1 
11281 11295     1 
11282 11285     1 
11282 11286     1 
11282 11292     1 
11283 11285     1 
11283 11286     1 
11283 11292     1 
11284 11288     1 
11284 11289     1 
11284 11296     1 
11285 11287     1 
11285 11293     1 
11285 11294     1 
11285 11295     1 
11286 11290     1 
11286 11291     1 
11286 11293     1 
11286 11294     1 
11286 11295     1 
11286 11301     1 
11287 11292     1 
11287 11302     1 
11287 11303     1 
11287 11304     1 
11288 11290     1 
11288 11291     1 
11288 11301     1 
11289 11305     1 
11289 11306     1 
11289 11307     1 
11290 11302     1 
11290 11303     1 
11290 11304     1 
11291 11302     1 
11291 11303     1 
11291 11304     1 
11292 11297     1 
11292 11298     1 
11293 11296     1 
11294 11296     1 
11295 11299     1 
11295 11300     1 
11295 11348     1 
11296 11349     1 
11296 11350     1 
11296 11351     1 
11297 11299     1 
11297 11300     1 
11297 11348     1 
11298 11352     1 
11298 11353     1 
11298 11354     1 
11299 11349     1 
11299 11350     1 
11299 11351     1 
11300 11349     1 
11300 11350     1 
11300 11351     1 
11301 11308     1 
11301 11309     1 
11301 11310     1 
11302 11305     1 
11302 11306     1 
11302 11307     1 
11303 11305     1 
11303 11306     1 
11303 11307     1 
11304 11311     1 
11304 11312     1 
11304 11313     1 
11305 11308     1 
11305 11309     1 
11305 11310     1 
11306 11308     1 
11306 11309     1 
11306 11310     1 
11307 11314     1 
11307 11315     1 
11307 11316     1 
11308 11311     1 
11308 11312     1 
11308 11313     1 
11309 11311     1 
11309 11312     1 
11309 11313     1 
11310 11317     1 
11310 11318     1 
11310 11319     1 
11311 11314     1 
11311 11315     1 
11311 11316     1 
11312 11314     1 
11312 11315     1 
11312 11316     1 
11313 11320     1 
11313 11321     1 
11314 11317     1 
11314 11318     1 
11314 11319     1 
11315 11317     1 
11315 11318     1 
11315 11319     1 
11316 11322     1 
11316 11323     1 
11317 11320     1 
11317 11321     1 
11318 11320     1 
11318 11321     1 
11319 11324     1 
11319 11325     1 
11319 11326     1 
11320 11322     1 
11320 11323     1 
11321 11327     1 
11321 11328     1 
11321 11329     1 
11322 11324     1 
11322 11325     1 
11322 11326     1 
11323 11330     1 
11323 11331     1 
11323 11332     1 
11324 11327     1 
11324 11328     1 
11324 11329     1 
11325 11327     1 
11325 11328     1 
11325 11329     1 
11326 11333     1 
11326 11334     1 
11326 11335     1 
11327 11330     1 
11327 11331     1 
11327 11332     1 
11328 11330     1 
11328 11331     1 
11328 11332     1 
11329 11336     1 
11329 11337     1 
11329 11338     1 
11330 11333     1 
11330 11334     1 
11330 11335     1 
11331 11333     1 
11331 11334     1 
11331 11335     1 
11332 11339     1 
11332 11340     1 
11332 11341     1 
11333 11336     1 
11333 11337     1 
11333 11338     1 
11334 11336     1 
11334 11337     1 
11334 11338     1 
11335 11342     1 
11335 11343     1 
11335 11344     1 
11336 11339     1 
11336 11340     1 
11336 11341     1 
11337 11339     1 
11337 11340     1 
11337 11341     1 
11338 11345     1 
11338 11346     1 
11338 11347     1 
11339 11342     1 
11339 11343     1 
11339 11344     1 
11340 11342     1 
11340 11343     1 
11340 11344     1 
11342 11345     1 
11342 11346     1 
11342 11347     1 
11343 11345     1 
11343 11346     1 
11343 11347     1 
11348 11355     1 
11348 11356     1 
11348 11357     1 
11349 11352     1 
11349 11353     1 
11349 11354     1 
11350 11352     1 
11350 11353     1 
11350 11354     1 
11351 11358     1 
11351 11359     1 
11351 11360     1 
11352 11355     1 
11352 11356     1 
11352 11357     1 
11353 11355     1 
11353 11356     1 
11353 11357     1 
11354 11361     1 
11354 11362     1 
11354 11363     1 
11355 11358     1 
11355 11359     1 
11355 11360     1 
11356 11358     1 
11356 11359     1 
11356 11360     1 
11357 11364     1 
11357 11365     1 
11357 11366     1 
11358 11361     1 
11358 11362     1 
11358 11363     1 
11359 11361     1 
11359 11362     1 
11359 11363     1 
11360 11367     1 
11360 11368     1 
11360 11369     1 
11361 11364     1 
11361 11365     1 
11361 11366     1 
11362 11364     1 
11362 11365     1 
11362 11366     1 
11363 11370     1 
11363 11371     1 
11363 11372     1 
11364 11367     1 
11364 11368     1 
11364 11369     1 
11365 11367     1 
11365 11368     1 
11365 11369     1 
11366 11373     1 
11366 11374     1 
11366 11375     1 
11367 11370     1 
11367 11371     1 
11367 11372     1 
11368 11370     1 
11368 11371     1 
11368 11372     1 
11369 11376     1 
11369 11377     1 
11369 11378     1 
11370 11373     1 
11370 11374     1 
11370 11375     1 
11371 11373     1 
11371 11374     1 
11371 11375     1 
11372 11379     1 
11372 11380     1 
11372 11381     1 
11373 11376     1 
11373 11377     1 
11373 11378     1 
11374 11376     1 
11374 11377     1 
11374 11378     1 
11375 11382     1 
11375 11383     1 
11375 11384     1 
11376 11379     1 
11376 11380     1 
11376 11381     1 
11377 11379     1 
11377 11380     1 
11377 11381     1 
11378 11385     1 
11378 11386     1 
11378 11387     1 
11379 11382     1 
11379 11383     1 
11379 11384     1 
11380 11382     1 
11380 11383     1 
11380 11384     1 
11381 11388     1 
11381 11389     1 
11381 11390     1 
11382 11385     1 
11382 11386     1 
11382 11387     1 
11383 11385     1 
11383 11386     1 
11383 11387     1 
11385 11388     1 
11385 11389     1 
11385 11390     1 
11386 11388     1 
11386 11389     1 
11386 11390     1 
11391 11408     1 
11391 11409     1 
11391 11413     1 
11392 11396     1 
11392 11397     1 
11392 11398     1 
11392 11400     1 
11392 11401     1 
11392 11402     1 
11392 11404     1 
11392 11405     1 
11392 11406     1 
11392 11410     1 
11393 11395     1 
11393 11399     1 
11393 11403     1 
11393 11408     1 
11393 11409     1 
11393 11413     1 
11394 11395     1 
11394 11399     1 
11394 11403     1 
11394 11408     1 
11394 11409     1 
11394 11413     1 
11395 11400     1 
11395 11401     1 
11395 11402     1 
11395 11404     1 
11395 11405     1 
11395 11406     1 
11395 11407     1 
11396 11399     1 
11396 11403     1 
11397 11399     1 
11397 11403     1 
11398 11399     1 
11398 11403     1 
11399 11404     1 
11399 11405     1 
11399 11406     1 
11399 11407     1 
11400 11403     1 
11401 11403     1 
11402 11403     1 
11403 11407     1 
11407 11411     1 
11407 11412     1 
11407 11414     1 
11408 11410     1 
11409 11410     1 
11410 11416     1 
11410 11417     1 
11410 11418     1 
11411 11415     1 
11412 11415     1 
11413 11415     1 
11414 11419     1 
11414 11420     1 
11414 11426     1 
11415 11421     1 
11415 11427     1 
11415 11428     1 
11415 11429     1 
11416 11419     1 
11416 11420     1 
11416 11426     1 
11417 11419     1 
11417 11420     1 
11417 11426     1 
11418 11422     1 
11418 11423     1 
11418 11430     1 
11419 11421     1 
11419 11427     1 
11419 11428     1 
11419 11429     1 
11420 11424     1 
11420 11425     1 
11420 11427     1 
11420 11428     1 
11420 11429     1 
11420 11435     1 
11421 11426     1 
11421 11436     1 
11421 11437     1 
11421 11438     1 
11422 11424     1 
11422 11425     1 
11422 11435     1 
11423 11439     1 
11423 11440     1 
11423 11441     1 
11424 11436     1 
11424 11437     1 
11424 11438     1 
11425 11436     1 
11425 11437     1 
11425 11438     1 
11426 11431     1 
11426 11432     1 
11427 11430     1 
11428 11430     1 
11429 11433     1 
11429 11434     1 
11429 11482     1 
11430 11483     1 
11430 11484     1 
11430 11485     1 
11431 11433     1 
11431 11434     1 
11431 11482     1 
11432 11486     1 
11432 11487     1 
11432 11488     1 
11433 11483     1 
11433 11484     1 
11433 11485     1 
11434 11483     1 
11434 11484     1 
11434 11485     1 
11435 11442     1 
11435 11443     1 
11435 11444     1 
11436 11439     1 
11436 11440     1 
11436 11441     1 
11437 11439     1 
11437 11440     1 
11437 11441     1 
11438 11445     1 
11438 11446     1 
11438 11447     1 
11439 11442     1 
11439 11443     1 
11439 11444     1 
11440 11442     1 
11440 11443     1 
11440 11444     1 
11441 11448     1 
11441 11449     1 
11441 11450     1 
11442 11445     1 
11442 11446     1 
11442 11447     1 
11443 11445     1 
11443 11446     1 
11443 11447     1 
11444 11451     1 
11444 11452     1 
11444 11453     1 
11445 11448     1 
11445 11449     1 
11445 11450     1 
11446 11448     1 
11446 11449     1 
11446 11450     1 
11447 11454     1 
11447 11455     1 
11448 11451     1 
11448 11452     1 
11448 11453     1 
11449 11451     1 
11449 11452     1 
11449 11453     1 
11450 11456     1 
11450 11457     1 
11451 11454     1 
11451 11455     1 
11452 11454     1 
11452 11455     1 
11453 11458     1 
11453 11459     1 
11453 11460     1 
11454 11456     1 
11454 11457     1 
11455 11461     1 
11455 11462     1 
11455 11463     1 
11456 11458     1 
11456 11459     1 
11456 11460     1 
11457 11464     1 
11457 11465     1 
11457 11466     1 
11458 11461     1 
11458 11462     1 
11458 11463     1 
11459 11461     1 
11459 11462     1 
11459 11463     1 
11460 11467     1 
11460 11468     1 
11460 11469     1 
11461 11464     1 
11461 11465     1 
11461 11466     1 
11462 11464     1 
11462 11465     1 
11462 11466     1 
11463 11470     1 
11463 11471     1 
11463 11472     1 
11464 11467     1 
11464 11468     1 
11464 11469     1 
11465 11467     1 
11465 11468     1 
11465 11469     1 
11466 11473     1 
11466 11474     1 
11466 11475     1 
11467 11470     1 
11467 11471     1 
11467 11472     1 
11468 11470     1 
11468 11471     1 
11468 11472     1 
11469 11476     1 
11469 11477     1 
11469 11478     1 
11470 11473     1 
11470 11474     1 
11470 11475     1 
11471 11473     1 
11471 11474     1 
11471 11475     1 
11472 11479     1 
11472 11480     1 
11472 11481     1 
11473 11476     1 
11473 11477     1 
11473 11478     1 
11474 11476     1 
11474 11477     1 
11474 11478     1 
11476 11479     1 
11476 11480     1 
11476 11481     1 
11477 11479     1 
11477 11480     1 
11477 11481     1 
11482 11489     1 
11482 11490     1 
11482 11491     1 
11483 11486     1 
11483 11487     1 
11483 11488     1 
11484 11486     1 
11484 11487     1 
11484 11488     1 
11485 11492     1 
11485 11493     1 
11485 11494     1 
11486 11489     1 
11486 11490     1 
11486 11491     1 
11487 11489     1 
11487 11490     1 
11487 11491     1 
11488 11495     1 
11488 11496     1 
11488 11497     1 
11489 11492     1 
11489 11493     1 
11489 11494     1 
11490 11492     1 
11490 11493     1 
11490 11494     1 
11491 11498     1 
11491 11499     1 
11491 11500     1 
11492 11495     1 
11492 11496     1 
11492 11497     1 
11493 11495     1 
11493 11496     1 
11493 11497     1 
11494 11501     1 
11494 11502     1 
11494 11503     1 
11495 11498     1 
11495 11499     1 
11495 11500     1 
11496 11498     1 
11496 11499     1 
11496 11500     1 
11497 11504     1 
11497 11505     1 
11497 11506     1 
11498 11501     1 
11498 11502     1 
11498 11503     1 
11499 11501     1 
11499 11502     1 
11499 11503     1 
11500 11507     1 
11500 11508     1 
11500 11509     1 
11501 11504     1 
11501 11505     1 
11501 11506     1 
11502 11504     1 
11502 11505     1 
11502 11506     1 
11503 11510     1 
11503 11511     1 
11503 11512     1 
11504 11507     1 
11504 11508     1 
11504 11509     1 
11505 11507     1 
11505 11508     1 
11505 11509     1 
11506 11513     1 
11506 11514     1 
11506 11515     1 
11507 11510     1 
11507 11511     1 
11507 11512     1 
11508 11510     1 
11508 11511     1 
11508 11512     1 
11509 11516     1 
11509 11517     1 
11509 11518     1 
11510 11513     1 
11510 11514     1 
11510 11515     1 
11511 11513     1 
11511 11514     1 
11511 11515     1 
11512 11519     1 
11512 11520     1 
11512 11521     1 
11513 11516     1 
11513 11517     1 
11513 11518     1 
11514 11516     1 
11514 11517     1 
11514 11518     1 
11515 11522     1 
11515 11523     1 
11515 11524     1 
11516 11519     1 
11516 11520     1 
11516 11521     1 
11517 11519     1 
11517 11520     1 
11517 11521     1 
11519 11522     1 
11519 11523     1 
11519 11524     1 
11520 11522     1 
11520 11523     1 
11520 11524     1 
11525 11542     1 
11525 11543     1 
11525 11547     1 
11526 11530     1 
11526 11531     1 
11526 11532     1 
11526 11534     1 
11526 11535     1 
11526 11536     1 
11526 11538     1 
11526 11539     1 
11526 11540     1 
11526 11544     1 
11527 11529     1 
11527 11533     1 
11527 11537     1 
11527 11542     1 
11527 11543     1 
11527 11547     1 
11528 11529     1 
11528 11533     1 
11528 11537     1 
11528 11542     1 
11528 11543     1 
11528 11547     1 
11529 11534     1 
11529 11535     1 
11529 11536     1 
11529 11538     1 
11529 11539     1 
11529 11540     1 
11529 11541     1 
11530 11533     1 
11530 11537     1 
11531 11533     1 
11531 11537     1 
11532 11533     1 
11532 11537     1 
11533 11538     1 
11533 11539     1 
11533 11540     1 
11533 11541     1 
11534 11537     1 
11535 11537     1 
11536 11537     1 
11537 11541     1 
11541 11545     1 
11541 11546     1 
11541 11548     1 
11542 11544     1 
11543 11544     1 
11544 11550     1 
11544 11551     1 
11544 11552     1 
11545 11549     1 
11546 11549     1 
11547 11549     1 
11548 11553     1 
11548 11554     1 
11548 11560     1 
11549 11555     1 
11549 11561     1 
11549 11562     1 
11549 11563     1 
11550 11553     1 
11550 11554     1 
11550 11560     1 
11551 11553     1 
11551 11554     1 
11551 11560     1 
11552 11556     1 
11552 11557     1 
11552 11564     1 
11553 11555     1 
11553 11561     1 
11553 11562     1 
11553 11563     1 
11554 11558     1 
11554 11559     1 
11554 11561     1 
11554 11562     1 
11554 11563     1 
11554 11569     1 
11555 11560     1 
11555 11570     1 
11555 11571     1 
11555 11572     1 
11556 11558     1 
11556 11559     1 
11556 11569     1 
11557 11573     1 
11557 11574     1 
11557 11575     1 
11558 11570     1 
11558 11571     1 
11558 11572     1 
11559 11570     1 
11559 11571     1 
11559 11572     1 
11560 11565     1 
11560 11566     1 
11561 11564     1 
11562 11564     1 
11563 11567     1 
11563 11568     1 
11563 11616     1 
11564 11617     1 
11564 11618     1 
11564 11619     1 
11565 11567     1 
11565 11568     1 
11565 11616     1 
11566 11620     1 
11566 11621     1 
11566 11622     1 
11567 11617     1 
11567 11618     1 
11567 11619     1 
11568 11617     1 
11568 11618     1 
11568 11619     1 
11569 11576     1 
11569 11577     1 
11569 11578     1 
11570 11573     1 
11570 11574     1 
11570 11575     1 
11571 11573     1 
11571 11574     1 
11571 11575     1 
11572 11579     1 
11572 11580     1 
11572 11581     1 
11573 11576     1 
11573 11577     1 
11573 11578     1 
11574 11576     1 
11574 11577     1 
11574 11578     1 
11575 11582     1 
11575 11583     1 
11575 11584     1 
11576 11579     1 
11576 11580     1 
11576 11581     1 
11577 11579     1 
11577 11580     1 
11577 11581     1 
11578 11585     1 
11578 11586     1 
11578 11587     1 
11579 11582     1 
11579 11583     1 
11579 11584     1 
11580 11582     1 
11580 11583     1 
11580 11584     1 
11581 11588     1 
11581 11589     1 
11582 11585     1 
11582 11586     1 
11582 11587     1 
11583 11585     1 
11583 11586     1 
11583 11587     1 
11584 11590     1 
11584 11591     1 
11585 11588     1 
11585 11589     1 
11586 11588     1 
11586 11589     1 
11587 11592     1 
11587 11593     1 
11587 11594     1 
11588 11590     1 
11588 11591     1 
11589 11595     1 
11589 11596     1 
11589 11597     1 
11590 11592     1 
11590 11593     1 
11590 11594     1 
11591 11598     1 
11591 11599     1 
11591 11600     1 
11592 11595     1 
11592 11596     1 
11592 11597     1 
11593 11595     1 
11593 11596     1 
11593 11597     1 
11594 11601     1 
11594 11602     1 
11594 11603     1 
11595 11598     1 
11595 11599     1 
11595 11600     1 
11596 11598     1 
11596 11599     1 
11596 11600     1 
11597 11604     1 
11597 11605     1 
11597 11606     1 
11598 11601     1 
11598 11602     1 
11598 11603     1 
11599 11601     1 
11599 11602     1 
11599 11603     1 
11600 11607     1 
11600 11608     1 
11600 11609     1 
11601 11604     1 
11601 11605     1 
11601 11606     1 
11602 11604     1 
11602 11605     1 
11602 11606     1 
11603 11610     1 
11603 11611     1 
11603 11612     1 
11604 11607     1 
11604 11608     1 
11604 11609     1 
11605 11607     1 
11605 11608     1 
11605 11609     1 
11606 11613     1 
11606 11614     1 
11606 11615     1 
11607 11610     1 
11607 11611     1 
11607 11612     1 
11608 11610     1 
11608 11611     1 
11608 11612     1 
11610 11613     1 
11610 11614     1 
11610 11615     1 
11611 11613     1 
11611 11614     1 
11611 11615     1 
11616 11623     1 
11616 11624     1 
11616 11625     1 
11617 11620     1 
11617 11621     1 
11617 11622     1 
11618 11620     1 
11618 11621     1 
11618 11622     1 
11619 11626     1 
11619 11627     1 
11619 11628     1 
11620 11623     1 
11620 11624     1 
11620 11625     1 
11621 11623     1 
11621 11624     1 
11621 11625     1 
11622 11629     1 
11622 11630     1 
11622 11631     1 
11623 11626     1 
11623 11627     1 
11623 11628     1 
11624 11626     1 
11624 11627     1 
11624 11628     1 
11625 11632     1 
11625 11633     1 
11625 11634     1 
11626 11629     1 
11626 11630     1 
11626 11631     1 
11627 11629     1 
11627 11630     1 
11627 11631     1 
11628 11635     1 
11628 11636     1 
11628 11637     1 
11629 11632     1 
11629 11633     1 
11629 11634     1 
11630 11632     1 
11630 11633     1 
11630 11634     1 
11631 11638     1 
11631 11639     1 
11631 11640     1 
11632 11635     1 
11632 11636     1 
11632 11637     1 
11633 11635     1 
11633 11636     1 
11633 11637     1 
11634 11641     1 
11634 11642     1 
11634 11643     1 
11635 11638     1 
11635 11639     1 
11635 11640     1 
11636 11638     1 
11636 11639     1 
11636 11640     1 
11637 11644     1 
11637 11645     1 
11637 11646     1 
11638 11641     1 
11638 11642     1 
11638 11643     1 
11639 11641     1 
11639 11642     1 
11639 11643     1 
11640 11647     1 
11640 11648     1 
11640 11649     1 
11641 11644     1 
11641 11645     1 
11641 11646     1 
11642 11644     1 
11642 11645     1 
11642 11646     1 
11643 11650     1 
11643 11651     1 
11643 11652     1 
11644 11647     1 
11644 11648     1 
11644 11649     1 
11645 11647     1 
11645 11648     1 
11645 11649     1 
11646 11653     1 
11646 11654     1 
11646 11655     1 
11647 11650     1 
11647 11651     1 
11647 11652     1 
11648 11650     1 
11648 11651     1 
11648 11652     1 
11649 11656     1 
11649 11657     1 
11649 11658     1 
11650 11653     1 
11650 11654     1 
11650 11655     1 
11651 11653     1 
11651 11654     1 
11651 11655     1 
11653 11656     1 
11653 11657     1 
11653 11658     1 
11654 11656     1 
11654 11657     1 
11654 11658     1 
11659 11676     1 
11659 11677     1 
11659 11681     1 
11660 11664     1 
11660 11665     1 
11660 11666     1 
11660 11668     1 
11660 11669     1 
11660 11670     1 
11660 11672     1 
11660 11673     1 
11660 11674     1 
11660 11678     1 
11661 11663     1 
11661 11667     1 
11661 11671     1 
11661 11676     1 
11661 11677     1 
11661 11681     1 
11662 11663     1 
11662 11667     1 
11662 11671     1 
11662 11676     1 
11662 11677     1 
11662 11681     1 
11663 11668     1 
11663 11669     1 
11663 11670     1 
11663 11672     1 
11663 11673     1 
11663 11674     1 
11663 11675     1 
11664 11667     1 
11664 11671     1 
11665 11667     1 
11665 11671     1 
11666 11667     1 
11666 11671     1 
11667 11672     1 
11667 11673     1 
11667 11674     1 
11667 11675     1 
11668 11671     1 
11669 11671     1 
11670 11671     1 
11671 11675     1 
11675 11679     1 
11675 11680     1 
11675 11682     1 
11676 11678     1 
11677 11678     1 
11678 11684     1 
11678 11685     1 
11678 11686     1 
11679 11683     1 
11680 11683     1 
11681 11683     1 
11682 11687     1 
11682 11688     1 
11682 11694     1 
11683 11689     1 
11683 11695     1 
11683 11696     1 
11683 11697     1 
11684 11687     1 
11684 11688     1 
11684 11694     1 
11685 11687     1 
11685 11688     1 
11685 11694     1 
11686 11690     1 
11686 11691     1 
11686 11698     1 
11687 11689     1 
11687 11695     1 
11687 11696     1 
11687 11697     1 
11688 11692     1 
11688 11693     1 
11688 11695     1 
11688 11696     1 
11688 11697     1 
11688 11703     1 
11689 11694     1 
11689 11704     1 
11689 11705     1 
11689 11706     1 
11690 11692     1 
11690 11693     1 
11690 11703     1 
11691 11707     1 
11691 11708     1 
11691 11709     1 
11692 11704     1 
11692 11705     1 
11692 11706     1 
11693 11704     1 
11693 11705     1 
11693 11706     1 
11694 11699     1 
11694 11700     1 
11695 11698     1 
11696 11698     1 
11697 11701     1 
11697 11702     1 
11697 11750     1 
11698 11751     1 
11698 11752     1 
11698 11753     1 
11699 11701     1 
11699 11702     1 
11699 11750     1 
11700 11754     1 
11700 11755     1 
11700 11756     1 
11701 11751     1 
11701 11752     1 
11701 11753     1 
11702 11751     1 
11702 11752     1 
11702 11753     1 
11703 11710     1 
11703 11711     1 
11703 11712     1 
11704 11707     1 
11704 11708     1 
11704 11709     1 
11705 11707     1 
11705 11708     1 
11705 11709     1 
11706 11713     1 
11706 11714     1 
11706 11715     1 
11707 11710     1 
11707 11711     1 
11707 11712     1 
11708 11710     1 
11708 11711     1 
11708 11712     1 
11709 11716     1 
11709 11717     1 
11709 11718     1 
11710 11713     1 
11710 11714     1 
11710 11715     1 
11711 11713     1 
11711 11714     1 
11711 11715     1 
11712 11719     1 
11712 11720     1 
11712 11721     1 
11713 11716     1 
11713 11717     1 
11713 11718     1 
11714 11716     1 
11714 11717     1 
11714 11718     1 
11715 11722     1 
11715 11723     1 
11716 11719     1 
11716 11720     1 
11716 11721     1 
11717 11719     1 
11717 11720     1 
11717 11721     1 
11718 11724     1 
11718 11725     1 
11719 11722     1 
11719 11723     1 
11720 11722     1 
11720 11723     1 
11721 11726     1 
11721 11727     1 
11721 11728     1 
11722 11724     1 
11722 11725     1 
11723 11729     1 
11723 11730     1 
11723 11731     1 
11724 11726     1 
11724 11727     1 
11724 11728     1 
11725 11732     1 
11725 11733     1 
11725 11734     1 
11726 11729     1 
11726 11730     1 
11726 11731     1 
11727 11729     1 
11727 11730     1 
11727 11731     1 
11728 11735     1 
11728 11736     1 
11728 11737     1 
11729 11732     1 
11729 11733     1 
11729 11734     1 
11730 11732     1 
11730 11733     1 
11730 11734     1 
11731 11738     1 
11731 11739     1 
11731 11740     1 
11732 11735     1 
11732 11736     1 
11732 11737     1 
11733 11735     1 
11733 11736     1 
11733 11737     1 
11734 11741     1 
11734 11742     1 
11734 11743     1 
11735 11738     1 
11735 11739     1 
11735 11740     1 
11736 11738     1 
11736 11739     1 
11736 11740     1 
11737 11744     1 
11737 11745     1 
11737 11746     1 
11738 11741     1 
11738 11742     1 
11738 11743     1 
11739 11741     1 
11739 11742     1 
11739 11743     1 
11740 11747     1 
11740 11748     1 
11740 11749     1 
11741 11744     1 
11741 11745     1 
11741 11746     1 
11742 11744     1 
11742 11745     1 
11742 11746     1 
11744 11747     1 
11744 11748     1 
11744 11749     1 
11745 11747     1 
11745 11748     1 
11745 11749     1 
11750 11757     1 
11750 11758     1 
11750 11759     1 
11751 11754     1 
11751 11755     1 
11751 11756     1 
11752 11754     1 
11752 11755     1 
11752 11756     1 
11753 11760     1 
11753 11761     1 
11753 11762     1 
11754 11757     1 
11754 11758     1 
11754 11759     1 
11755 11757     1 
11755 11758     1 
11755 11759     1 
11756 11763     1 
11756 11764     1 
11756 11765     1 
11757 11760     1 
11757 11761     1 
11757 11762     1 
11758 11760     1 
11758 11761     1 
11758 11762     1 
11759 11766     1 
11759 11767     1 
11759 11768     1 
11760 11763     1 
11760 11764     1 
11760 11765     1 
11761 11763     1 
11761 11764     1 
11761 11765     1 
11762 11769     1 
11762 11770     1 
11762 11771     1 
11763 11766     1 
11763 11767     1 
11763 11768     1 
11764 11766     1 
11764 11767     1 
11764 11768     1 
11765 11772     1 
11765 11773     1 
11765 11774     1 
11766 11769     1 
11766 11770     1 
11766 11771     1 
11767 11769     1 
11767 11770     1 
11767 11771     1 
11768 11775     1 
11768 11776     1 
11768 11777     1 
11769 11772     1 
11769 11773     1 
11769 11774     1 
11770 11772     1 
11770 11773     1 
11770 11774     1 
11771 11778     1 
11771 11779     1 
11771 11780     1 
11772 11775     1 
11772 11776     1 
11772 11777     1 
11773 11775     1 
11773 11776     1 
11773 11777     1 
11774 11781     1 
11774 11782     1 
11774 11783     1 
11775 11778     1 
11775 11779     1 
11775 11780     1 
11776 11778     1 
11776 11779     1 
11776 11780     1 
11777 11784     1 
11777 11785     1 
11777 11786     1 
11778 11781     1 
11778 11782     1 
11778 11783     1 
11779 11781     1 
11779 11782     1 
11779 11783     1 
11780 11787     1 
11780 11788     1 
11780 11789     1 
11781 11784     1 
11781 11785     1 
11781 11786     1 
11782 11784     1 
11782 11785     1 
11782 11786     1 
11783 11790     1 
11783 11791     1 
11783 11792     1 
11784 11787     1 
11784 11788     1 
11784 11789     1 
11785 11787     1 
11785 11788     1 
11785 11789     1 
11787 11790     1 
11787 11791     1 
11787 11792     1 
11788 11790     1 
11788 11791     1 
11788 11792     1 
11793 11810     1 
11793 11811     1 
11793 11815     1 
11794 11798     1 
11794 11799     1 
11794 11800     1 
11794 11802     1 
11794 11803     1 
11794 11804     1 
11794 11806     1 
11794 11807     1 
11794 11808     1 
11794 11812     1 
11795 11797     1 
11795 11801     1 
11795 11805     1 
11795 11810     1 
11795 11811     1 
11795 11815     1 
11796 11797     1 
11796 11801     1 
11796 11805     1 
11796 11810     1 
11796 11811     1 
11796 11815     1 
11797 11802     1 
11797 11803     1 
11797 11804     1 
11797 11806     1 
11797 11807     1 
11797 11808     1 
11797 11809     1 
11798 11801     1 
11798 11805     1 
11799 11801     1 
11799 11805     1 
11800 11801     1 
11800 11805     1 
11801 11806     1 
11801 11807     1 
11801 11808     1 
11801 11809     1 
11802 11805     1 
11803 11805     1 
11804 11805     1 
11805 11809     1 
11809 11813     1 
11809 11814     1 
11809 11816     1 
11810 11812     1 
11811 11812     1 
11812 11818     1 
11812 11819     1 
11812 11820     1 
11813 11817     1 
11814 11817     1 
11815 11817     1 
11816 11821     1 
11816 11822     1 
11816 11828     1 
11817 11823     1 
11817 11829     1 
11817 11830     1 
11817 11831     1 
11818 11821     1 
11818 11822     1 
11818 11828     1 
11819 11821     1 
11819 11822     1 
11819 11828     1 
11820 11824     1 
11820 11825     1 
11820 11832     1 
11821 11823     1 
11821 11829     1 
11821 11830     1 
11821 11831     1 
11822 11826     1 
11822 11827     1 
11822 11829     1 
11822 11830     1 
11822 11831     1 
11822 11837     1 
11823 11828     1 
11823 11838     1 
11823 11839     1 
11823 11840     1 
11824 11826     1 
11824 11827     1 
11824 11837     1 
11825 11841     1 
11825 11842     1 
11825 11843     1 
11826 11838     1 
11826 11839     1 
11826 11840     1 
11827 11838     1 
11827 11839     1 
11827 11840     1 
11828 11833     1 
11828 11834     1 
11829 11832     1 
11830 11832     1 
11831 11835     1 
11831 11836     1 
11831 11884     1 
11832 11885     1 
11832 11886     1 
11832 11887     1 
11833 11835     1 
11833 11836     1 
11833 11884     1 
11834 11888     1 
11834 11889     1 
11834 11890     1 
11835 11885     1 
11835 11886     1 
11835 11887     1 
11836 11885     1 
11836 11886     1 
11836 11887     1 
11837 11844     1 
11837 11845     1 
11837 11846     1 
11838 11841     1 
11838 11842     1 
11838 11843     1 
11839 11841     1 
11839 11842     1 
11839 11843     1 
11840 11847     1 
11840 11848     1 
11840 11849     1 
11841 11844     1 
11841 11845     1 
11841 11846     1 
11842 11844     1 
11842 11845     1 
11842 11846     1 
11843 11850     1 
11843 11851     1 
11843 11852     1 
11844 11847     1 
11844 11848     1 
11844 11849     1 
11845 11847     1 
11845 11848     1 
11845 11849     1 
11846 11853     1 
11846 11854     1 
11846 11855     1 
11847 11850     1 
11847 11851     1 
11847 11852     1 
11848 11850     1 
11848 11851     1 
11848 11852     1 
11849 11856     1 
11849 11857     1 
11850 11853     1 
11850 11854     1 
11850 11855     1 
11851 11853     1 
11851 11854     1 
11851 11855     1 
11852 11858     1 
11852 11859     1 
11853 11856     1 
11853 11857     1 
11854 11856     1 
11854 11857     1 
11855 11860     1 
11855 11861     1 
11855 11862     1 
11856 11858     1 
11856 11859     1 
11857 11863     1 
11857 11864     1 
11857 11865     1 
11858 11860     1 
11858 11861     1 
11858 11862     1 
11859 11866     1 
11859 11867     1 
11859 11868     1 
11860 11863     1 
11860 11864     1 
11860 11865     1 
11861 11863     1 
11861 11864     1 
11861 11865     1 
11862 11869     1 
11862 11870     1 
11862 11871     1 
11863 11866     1 
11863 11867     1 
11863 11868     1 
11864 11866     1 
11864 11867     1 
11864 11868     1 
11865 11872     1 
11865 11873     1 
11865 11874     1 
11866 11869     1 
11866 11870     1 
11866 11871     1 
11867 11869     1 
11867 11870     1 
11867 11871     1 
11868 11875     1 
11868 11876     1 
11868 11877     1 
11869 11872     1 
11869 11873     1 
11869 11874     1 
11870 11872     1 
11870 11873     1 
11870 11874     1 
11871 11878     1 
11871 11879     1 
11871 11880     1 
11872 11875     1 
11872 11876     1 
11872 11877     1 
11873 11875     1 
11873 11876     1 
11873 11877     1 
11874 11881     1 
11874 11882     1 
11874 11883     1 
11875 11878     1 
11875 11879     1 
11875 11880     1 
11876 11878     1 
11876 11879     1 
11876 11880     1 
11878 11881     1 
11878 11882     1 
11878 11883     1 
11879 11881     1 
11879 11882     1 
11879 11883     1 
11884 11891     1 
11884 11892     1 
11884 11893     1 
11885 11888     1 
11885 11889     1 
11885 11890     1 
11886 11888     1 
11886 11889     1 
11886 11890     1 
11887 11894     1 
11887 11895     1 
11887 11896     1 
11888 11891     1 
11888 11892     1 
11888 11893     1 
11889 11891     1 
11889 11892     1 
11889 11893     1 
11890 11897     1 
11890 11898     1 
11890 11899     1 
11891 11894     1 
11891 11895     1 
11891 11896     1 
11892 11894     1 
11892 11895     1 
11892 11896     1 
11893 11900     1 
11893 11901     1 
11893 11902     1 
11894 11897     1 
11894 11898     1 
11894 11899     1 
11895 11897     1 
11895 11898     1 
11895 11899     1 
11896 11903     1 
11896 11904     1 
11896 11905     1 
11897 11900     1 
11897 11901     1 
11897 11902     1 
11898 11900     1 
11898 11901     1 
11898 11902     1 
11899 11906     1 
11899 11907     1 
11899 11908     1 
11900 11903     1 
11900 11904     1 
11900 11905     1 
11901 11903     1 
11901 11904     1 
11901 11905     1 
11902 11909     1 
11902 11910     1 
11902 11911     1 
11903 11906     1 
11903 11907     1 
11903 11908     1 
11904 11906     1 
11904 11907     1 
11904 11908     1 
11905 11912     1 
11905 11913     1 
11905 11914     1 
11906 11909     1 
11906 11910     1 
11906 11911     1 
11907 11909     1 
11907 11910     1 
11907 11911     1 
11908 11915     1 
11908 11916     1 
11908 11917     1 
11909 11912     1 
11909 11913     1 
11909 11914     1 
11910 11912     1 
11910 11913     1 
11910 11914     1 
11911 11918     1 
11911 11919     1 
11911 11920     1 
11912 11915     1 
11912 11916     1 
11912 11917     1 
11913 11915     1 
11913 11916     1 
11913 11917     1 
11914 11921     1 
11914 11922     1 
11914 11923     1 
11915 11918     1 
11915 11919     1 
11915 11920     1 
11916 11918     1 
11916 11919     1 
11916 11920     1 
11917 11924     1 
11917 11925     1 
11917 11926     1 
11918 11921     1 
11918 11922     1 
11918 11923     1 
11919 11921     1 
11919 11922     1 
11919 11923     1 
11921 11924     1 
11921 11925     1 
11921 11926     1 
11922 11924     1 
11922 11925     1 
11922 11926     1 
11927 11944     1 
11927 11945     1 
11927 11949     1 
11928 11932     1 
11928 11933     1 
11928 11934     1 
11928 11936     1 
11928 11937     1 
11928 11938     1 
11928 11940     1 
11928 11941     1 
11928 11942     1 
11928 11946     1 
11929 11931     1 
11929 11935     1 
11929 11939     1 
11929 11944     1 
11929 11945     1 
11929 11949     1 
11930 11931     1 
11930 11935     1 
11930 11939     1 
11930 11944     1 
11930 11945     1 
11930 11949     1 
11931 11936     1 
11931 11937     1 
11931 11938     1 
11931 11940     1 
11931 11941     1 
11931 11942     1 
11931 11943     1 
11932 11935     1 
11932 11939     1 
11933 11935     1 
11933 11939     1 
11934 11935     1 
11934 11939     1 
11935 11940     1 
11935 11941     1 
11935 11942     1 
11935 11943     1 
11936 11939     1 
11937 11939     1 
11938 11939     1 
11939 11943     1 
11943 11947     1 
11943 11948     1 
11943 11950     1 
11944 11946     1 
11945 11946     1 
11946 11952     1 
11946 11953     1 
11946 11954     1 
11947 11951     1 
11948 11951     1 
11949 11951     1 
11950 11955     1 
11950 11956     1 
11950 11962     1 
11951 11957     1 
11951 11963     1 
11951 11964     1 
11951 11965     1 
11952 11955     1 
11952 11956     1 
11952 11962     1 
11953 11955     1 
11953 11956     1 
11953 11962     1 
11954 11958     1 
11954 11959     1 
11954 11966     1 
11955 11957     1 
11955 11963     1 
11955 11964     1 
11955 11965     1 
11956 11960     1 
11956 11961     1 
11956 11963     1 
11956 11964     1 
11956 11965     1 
11956 11971     1 
11957 11962     1 
11957 11972     1 
11957 11973     1 
11957 11974     1 
11958 11960     1 
11958 11961     1 
11958 11971     1 
11959 11975     1 
11959 11976     1 
11959 11977     1 
11960 11972     1 
11960 11973     1 
11960 11974     1 
11961 11972     1 
11961 11973     1 
11961 11974     1 
11962 11967     1 
11962 11968     1 
11963 11966     1 
11964 11966     1 
11965 11969     1 
11965 11970     1 
11965 12018     1 
11966 12019     1 
11966 12020     1 
11966 12021     1 
11967 11969     1 
11967 11970     1 
11967 12018     1 
11968 12022     1 
11968 12023     1 
11968 12024     1 
11969 12019     1 
11969 12020     1 
11969 12021     1 
11970 12019     1 
11970 12020     1 
11970 12021     1 
11971 11978     1 
11971 11979     1 
11971 11980     1 
11972 11975     1 
11972 11976     1 
11972 11977     1 
11973 11975     1 
11973 11976     1 
11973 11977     1 
11974 11981     1 
11974 11982     1 
11974 11983     1 
11975 11978     1 
11975 11979     1 
11975 11980     1 
11976 11978     1 
11976 11979     1 
11976 11980     1 
11977 11984     1 
11977 11985     1 
11977 11986     1 
11978 11981     1 
11978 11982     1 
11978 11983     1 
11979 11981     1 
11979 11982     1 
11979 11983     1 
11980 11987     1 
11980 11988     1 
11980 11989     1 
11981 11984     1 
11981 11985     1 
11981 11986     1 
11982 11984     1 
11982 11985     1 
11982 11986     1 
11983 11990     1 
11983 11991     1 
11984 11987     1 
11984 11988     1 
11984 11989     1 
11985 11987     1 
11985 11988     1 
11985 11989     1 
11986 11992     1 
11986 11993     1 
11987 11990     1 
11987 11991     1 
11988 11990     1 
11988 11991     1 
11989 11994     1 
11989 11995     1 
11989 11996     1 
11990 11992     1 
11990 11993     1 
11991 11997     1 
11991 11998     1 
11991 11999     1 
11992 11994     1 
11992 11995     1 
11992 11996     1 
11993 12000     1 
11993 12001     1 
11993 12002     1 
11994 11997     1 
11994 11998     1 
11994 11999     1 
11995 11997     1 
11995 11998     1 
11995 11999     1 
11996 12003     1 
11996 12004     1 
11996 12005     1 
11997 12000     1 
11997 12001     1 
11997 12002     1 
11998 12000     1 
11998 12001     1 
11998 12002     1 
11999 12006     1 
11999 12007     1 
11999 12008     1 
12000 12003     1 
12000 12004     1 
12000 12005     1 
12001 12003     1 
12001 12004     1 
12001 12005     1 
12002 12009     1 
12002 12010     1 
12002 12011     1 
12003 12006     1 
12003 12007     1 
12003 12008     1 
12004 12006     1 
12004 12007     1 
12004 12008     1 
12005 12012     1 
12005 12013     1 
12005 12014     1 
12006 12009     1 
12006 12010     1 
12006 12011     1 
12007 12009     1 
12007 12010     1 
12007 12011     1 
12008 12015     1 
12008 12016     1 
12008 12017     1 
12009 12012     1 
12009 12013     1 
12009 12014     1 
12010 12012     1 
12010 12013     1 
12010 12014     1 
12012 12015     1 
12012 12016     1 
12012 12017     1 
12013 12015     1 
12013 12016     1 
12013 12017     1 
12018 12025     1 
12018 12026     1 
12018 12027     1 
12019 12022     1 
12019 12023     1 
12019 12024     1 
12020 12022     1 
12020 12023     1 
12020 12024     1 
12021 12028     1 
12021 12029     1 
12021 12030     1 
12022 12025     1 
12022 12026     1 
12022 12027     1 
12023 12025     1 
12023 12026     1 
12023 12027     1 
12024 12031     1 
12024 12032     1 
12024 12033     1 
12025 12028     1 
12025 12029     1 
12025 12030     1 
12026 12028     1 
12026 12029     1 
12026 12030     1 
12027 12034     1 
12027 12035     1 
12027 12036     1 
12028 12031     1 
12028 12032     1 
12028 12033     1 
12029 12031     1 
12029 12032     1 
12029 12033     1 
12030 12037     1 
12030 12038     1 
12030 12039     1 
12031 12034     1 
12031 12035     1 
12031 12036     1 
12032 12034     1 
12032 12035     1 
12032 12036     1 
12033 12040     1 
12033 12041     1 
12033 12042     1 
12034 12037     1 
12034 12038     1 
12034 12039     1 
12035 12037     1 
12035 12038     1 
12035 12039     1 
12036 12043     1 
12036 12044     1 
12036 12045     1 
12037 12040     1 
12037 12041     1 
12037 12042     1 
12038 12040     1 
12038 12041     1 
12038 12042     1 
12039 12046     1 
12039 12047     1 
12039 12048     1 
12040 12043     1 
12040 12044     1 
12040 12045     1 
12041 12043     1 
12041 12044     1 
12041 12045     1 
12042 12049     1 
12042 12050     1 
12042 12051     1 
12043 12046     1 
12043 12047     1 
12043 12048     1 
12044 12046     1 
12044 12047     1 
12044 12048     1 
12045 12052     1 
12045 12053     1 
12045 12054     1 
12046 12049     1 
12046 12050     1 
12046 12051     1 
12047 12049     1 
12047 12050     1 
12047 12051     1 
12048 12055     1 
12048 12056     1 
12048 12057     1 
12049 12052     1 
12049 12053     1 
12049 12054     1 
12050 12052     1 
12050 12053     1 
12050 12054     1 
12051 12058     1 
12051 12059     1 
12051 12060     1 
12052 12055     1 
12052 12056     1 
12052 12057     1 
12053 12055     1 
12053 12056     1 
12053 12057     1 
12055 12058     1 
12055 12059     1 
12055 12060     1 
12056 12058     1 
12056 12059     1 
12056 12060     1 
12061 12078     1 
12061 12079     1 
12061 12083     1 
12062 12066     1 
12062 12067     1 
12062 12068     1 
12062 12070     1 
12062 12071     1 
12062 12072     1 
12062 12074     1 
12062 12075     1 
12062 12076     1 
12062 12080     1 
12063 12065     1 
12063 12069     1 
12063 12073     1 
12063 12078     1 
12063 12079     1 
12063 12083     1 
12064 12065     1 
12064 12069     1 
12064 12073     1 
12064 12078     1 
12064 12079     1 
12064 12083     1 
12065 12070     1 
12065 12071     1 
12065 12072     1 
12065 12074     1 
12065 12075     1 
12065 12076     1 
12065 12077     1 
12066 12069     1 
12066 12073     1 
12067 12069     1 
12067 12073     1 
12068 12069     1 
12068 12073     1 
12069 12074     1 
12069 12075     1 
12069 12076     1 
12069 12077     1 
12070 12073     1 
12071 12073     1 
12072 12073     1 
12073 12077     1 
12077 12081     1 
12077 12082     1 
12077 12084     1 
12078 12080     1 
12079 12080     1 
12080 12086     1 
12080 12087     1 
12080 12088     1 
12081 12085     1 
12082 12085     1 
12083 12085     1 
12084 12089     1 
12084 12090     1 
12084 12096     1 
12085 12091     1 
12085 12097     1 
12085 12098     1 
12085 12099     1 
12086 12089     1 
12086 12090     1 
12086 12096     1 
12087 12089     1 
12087 12090     1 
12087 12096     1 
12088 12092     1 
12088 12093     1 
12088 12100     1 
12089 12091     1 
12089 12097     1 
12089 12098     1 
12089 12099     1 
12090 12094     1 
12090 12095     1 
12090 12097     1 
12090 12098     1 
12090 12099     1 
12090 12105     1 
12091 12096     1 
12091 12106     1 
12091 12107     1 
12091 12108     1 
12092 12094     1 
12092 12095     1 
12092 12105     1 
12093 12109     1 
12093 12110     1 
12093 12111     1 
12094 12106     1 
12094 12107     1 
12094 12108     1 
12095 12106     1 
12095 12107     1 
12095 12108     1 
12096 12101     1 
12096 12102     1 
12097 12100     1 
12098 12100     1 
12099 12103     1 
12099 12104     1 
12099 12152     1 
12100 12153     1 
12100 12154     1 
12100 12155     1 
12101 12103     1 
12101 12104     1 
12101 12152     1 
12102 12156     1 
12102 12157     1 
12102 12158     1 
12103 12153     1 
12103 12154     1 
12103 12155     1 
12104 12153     1 
12104 12154     1 
12104 12155     1 
12105 12112     1 
12105 12113     1 
12105 12114     1 
12106 12109     1 
12106 12110     1 
12106 12111     1 
12107 12109     1 
12107 12110     1 
12107 12111     1 
12108 12115     1 
12108 12116     1 
12108 12117     1 
12109 12112     1 
12109 12113     1 
12109 12114     1 
12110 12112     1 
12110 12113     1 
12110 12114     1 
12111 12118     1 
12111 12119     1 
12111 12120     1 
12112 12115     1 
12112 12116     1 
12112 12117     1 
12113 12115     1 
12113 12116     1 
12113 12117     1 
12114 12121     1 
12114 12122     1 
12114 12123     1 
12115 12118     1 
12115 12119     1 
12115 12120     1 
12116 12118     1 
12116 12119     1 
12116 12120     1 
12117 12124     1 
12117 12125     1 
12118 12121     1 
12118 12122     1 
12118 12123     1 
12119 12121     1 
12119 12122     1 
12119 12123     1 
12120 12126     1 
12120 12127     1 
12121 12124     1 
12121 12125     1 
12122 12124     1 
12122 12125     1 
12123 12128     1 
12123 12129     1 
12123 12130     1 
12124 12126     1 
12124 12127     1 
12125 12131     1 
12125 12132     1 
12125 12133     1 
12126 12128     1 
12126 12129     1 
12126 12130     1 
12127 12134     1 
12127 12135     1 
12127 12136     1 
12128 12131     1 
12128 12132     1 
12128 12133     1 
12129 12131     1 
12129 12132     1 
12129 12133     1 
12130 12137     1 
12130 12138     1 
12130 12139     1 
12131 12134     1 
12131 12135     1 
12131 12136     1 
12132 12134     1 
12132 12135     1 
12132 12136     1 
12133 12140     1 
12133 12141     1 
12133 12142     1 
12134 12137     1 
12134 12138     1 
12134 12139     1 
12135 12137     1 
12135 12138     1 
12135 12139     1 
12136 12143     1 
12136 12144     1 
12136 12145     1 
12137 12140     1 
12137 12141     1 
12137 12142     1 
12138 12140     1 
12138 12141     1 
12138 12142     1 
12139 12146     1 
12139 12147     1 
12139 12148     1 
12140 12143     1 
12140 12144     1 
12140 12145     1 
12141 12143     1 
12141 12144     1 
12141 12145     1 
12142 12149     1 
12142 12150     1 
12142 12151     1 
12143 12146     1 
12143 12147     1 
12143 12148     1 
12144 12146     1 
12144 12147     1 
12144 12148     1 
12146 12149     1 
12146 12150     1 
12146 12151     1 
12147 12149     1 
12147 12150     1 
12147 12151     1 
12152 12159     1 
12152 12160     1 
12152 12161     1 
12153 12156     1 
12153 12157     1 
12153 12158     1 
12154 12156     1 
12154 12157     1 
12154 12158     1 
12155 12162     1 
12155 12163     1 
12155 12164     1 
12156 12159     1 
12156 12160     1 
12156 12161     1 
12157 12159     1 
12157 12160     1 
12157 12161     1 
12158 12165     1 
12158 12166     1 
12158 12167     1 
12159 12162     1 
12159 12163     1 
12159 12164     1 
12160 12162     1 
12160 12163     1 
12160 12164     1 
12161 12168     1 
12161 12169     1 
12161 12170     1 
12162 12165     1 
12162 12166     1 
12162 12167     1 
12163 12165     1 
12163 12166     1 
12163 12167     1 
12164 12171     1 
12164 12172     1 
12164 12173     1 
12165 12168     1 
12165 12169     1 
12165 12170     1 
12166 12168     1 
12166 12169     1 
12166 12170     1 
12167 12174     1 
12167 12175     1 
12167 12176     1 
12168 12171     1 
12168 12172     1 
12168 12173     1 
12169 12171     1 
12169 12172     1 
12169 12173     1 
12170 12177     1 
12170 12178     1 
12170 12179     1 
12171 12174     1 
12171 12175     1 
12171 12176     1 
12172 12174     1 
12172 12175     1 
12172 12176     1 
12173 12180     1 
12173 12181     1 
12173 12182     1 
12174 12177     1 
12174 12178     1 
12174 12179     1 
12175 12177     1 
12175 12178     1 
12175 12179     1 
12176 12183     1 
12176 12184     1 
12176 12185     1 
12177 12180     1 
12177 12181     1 
12177 12182     1 
12178 12180     1 
12178 12181     1 
12178 12182     1 
12179 12186     1 
12179 12187     1 
12179 12188     1 
12180 12183     1 
12180 12184     1 
12180 12185     1 
12181 12183     1 
12181 12184     1 
12181 12185     1 
12182 12189     1 
12182 12190     1 
12182 12191     1 
12183 12186     1 
12183 12187     1 
12183 12188     1 
12184 12186     1 
12184 12187     1 
12184 12188     1 
12185 12192     1 
12185 12193     1 
12185 12194     1 
12186 12189     1 
12186 12190     1 
12186 12191     1 
12187 12189     1 
12187 12190     1 
12187 12191     1 
12189 12192     1 
12189 12193     1 
12189 12194     1 
12190 12192     1 
12190 12193     1 
12190 12194     1 
12195 12212     1 
12195 12213     1 
12195 12217     1 
12196 12200     1 
12196 12201     1 
12196 12202     1 
12196 12204     1 
12196 12205     1 
12196 12206     1 
12196 12208     1 
12196 12209     1 
12196 12210     1 
12196 12214     1 
12197 12199     1 
12197 12203     1 
12197 12207     1 
12197 12212     1 
12197 12213     1 
12197 12217     1 
12198 12199     1 
12198 12203     1 
12198 12207     1 
12198 12212     1 
12198 12213     1 
12198 12217     1 
12199 12204     1 
12199 12205     1 
12199 12206     1 
12199 12208     1 
12199 12209     1 
12199 12210     1 
12199 12211     1 
12200 12203     1 
12200 12207     1 
12201 12203     1 
12201 12207     1 
12202 12203     1 
12202 12207     1 
12203 12208     1 
12203 12209     1 
12203 12210     1 
12203 12211     1 
12204 12207     1 
12205 12207     1 
12206 12207     1 
12207 12211     1 
12211 12215     1 
12211 12216     1 
12211 12218     1 
12212 12214     1 
12213 12214     1 
12214 12220     1 
12214 12221     1 
12214 12222     1 
12215 12219     1 
12216 12219     1 
12217 12219     1 
12218 12223     1 
12218 12224     1 
12218 12230     1 
12219 12225     1 
12219 12231     1 
12219 12232     1 
12219 12233     1 
12220 12223     1 
12220 12224     1 
12220 12230     1 
12221 12223     1 
12221 12224     1 
12221 12230     1 
12222 12226     1 
12222 12227     1 
12222 12234     1 
12223 12225     1 
12223 12231     1 
12223 12232     1 
12223 12233     1 
12224 12228     1 
12224 12229     1 
12224 12231     1 
12224 12232     1 
12224 12233     1 
12224 12239     1 
12225 12230     1 
12225 12240     1 
12225 12241     1 
12225 12242     1 
12226 12228     1 
12226 12229     1 
12226 12239     1 
12227 12243     1 
12227 12244     1 
12227 12245     1 
12228 12240     1 
12228 12241     1 
12228 12242     1 
12229 12240     1 
12229 12241     1 
12229 12242     1 
12230 12235     1 
12230 12236     1 
12231 12234     1 
12232 12234     1 
12233 12237     1 
12233 12238     1 
12233 12286     1 
12234 12287     1 
12234 12288     1 
12234 12289     1 
12235 12237     1 
12235 12238     1 
12235 12286     1 
12236 12290     1 
12236 12291     1 
12236 12292     1 
12237 12287     1 
12237 12288     1 
12237 12289     1 
12238 12287     1 
12238 12288     1 
12238 12289     1 
12239 12246     1 
12239 12247     1 
12239 12248     1 
12240 12243     1 
12240 12244     1 
12240 12245     1 
12241 12243     1 
12241 12244     1 
12241 12245     1 
12242 12249     1 
12242 12250     1 
12242 12251     1 
12243 12246     1 
12243 12247     1 
12243 12248     1 
12244 12246     1 
12244 12247     1 
12244 12248     1 
12245 12252     1 
12245 12253     1 
12245 12254     1 
12246 12249     1 
12246 12250     1 
12246 12251     1 
12247 12249     1 
12247 12250     1 
12247 12251     1 
12248 12255     1 
12248 12256     1 
12248 12257     1 
12249 12252     1 
12249 12253     1 
12249 12254     1 
12250 12252     1 
12250 12253     1 
12250 12254     1 
12251 12258     1 
12251 12259     1 
12252 12255     1 
12252 12256     1 
12252 12257     1 
12253 12255     1 
12253 12256     1 
12253 12257     1 
12254 12260     1 
12254 12261     1 
12255 12258     1 
12255 12259     1 
12256 12258     1 
12256 12259     1 
12257 12262     1 
12257 12263     1 
12257 12264     1 
12258 12260     1 
12258 12261     1 
12259 12265     1 
12259 12266     1 
12259 12267     1 
12260 12262     1 
12260 12263     1 
12260 12264     1 
12261 12268     1 
12261 12269     1 
12261 12270     1 
12262 12265     1 
12262 12266     1 
12262 12267     1 
12263 12265     1 
12263 12266     1 
12263 12267     1 
12264 12271     1 
12264 12272     1 
12264 12273     1 
12265 12268     1 
12265 12269     1 
12265 12270     1 
12266 12268     1 
12266 12269     1 
12266 12270     1 
12267 12274     1 
12267 12275     1 
12267 12276     1 
12268 12271     1 
12268 12272     1 
12268 12273     1 
12269 12271     1 
12269 12272     1 
12269 12273     1 
12270 12277     1 
12270 12278     1 
12270 12279     1 
12271 12274     1 
12271 12275     1 
12271 12276     1 
12272 12274     1 
12272 12275     1 
12272 12276     1 
12273 12280     1 
12273 12281     1 
12273 12282     1 
12274 12277     1 
12274 12278     1 
12274 12279     1 
12275 12277     1 
12275 12278     1 
12275 12279     1 
12276 12283     1 
12276 12284     1 
12276 12285     1 
12277 12280     1 
12277 12281     1 
12277 12282     1 
12278 12280     1 
12278 12281     1 
12278 12282     1 
12280 12283     1 
12280 12284     1 
12280 12285     1 
12281 12283     1 
12281 12284     1 
12281 12285     1 
12286 12293     1 
12286 12294     1 
12286 12295     1 
12287 12290     1 
12287 12291     1 
12287 12292     1 
12288 12290     1 
12288 12291     1 
12288 12292     1 
12289 12296     1 
12289 12297     1 
12289 12298     1 
12290 12293     1 
12290 12294     1 
12290 12295     1 
12291 12293     1 
12291 12294     1 
12291 12295     1 
12292 12299     1 
12292 12300     1 
12292 12301     1 
12293 12296     1 
12293 12297     1 
12293 12298     1 
12294 12296     1 
12294 12297     1 
12294 12298     1 
12295 12302     1 
12295 12303     1 
12295 12304     1 
12296 12299     1 
12296 12300     1 
12296 12301     1 
12297 12299     1 
12297 12300     1 
12297 12301     1 
12298 12305     1 
12298 12306     1 
12298 12307     1 
12299 12302     1 
12299 12303     1 
12299 12304     1 
12300 12302     1 
12300 12303     1 
12300 12304     1 
12301 12308     1 
12301 12309     1 
12301 12310     1 
12302 12305     1 
12302 12306     1 
12302 12307     1 
12303 12305     1 
12303 12306     1 
12303 12307     1 
12304 12311     1 
12304 12312     1 
12304 12313     1 
12305 12308     1 
12305 12309     1 
12305 12310     1 
12306 12308     1 
12306 12309     1 
12306 12310     1 
12307 12314     1 
12307 12315     1 
12307 12316     1 
12308 12311     1 
12308 12312     1 
12308 12313     1 
12309 12311     1 
12309 12312     1 
12309 12313     1 
12310 12317     1 
12310 12318     1 
12310 12319     1 
12311 12314     1 
12311 12315     1 
12311 12316     1 
12312 12314     1 
12312 12315     1 
12312 12316     1 
12313 12320     1 
12313 12321     1 
12313 12322     1 
12314 12317     1 
12314 12318     1 
12314 12319     1 
12315 12317     1 
12315 12318     1 
12315 12319     1 
12316 12323     1 
12316 12324     1 
12316 12325     1 
12317 12320     1 
12317 12321     1 
12317 12322     1 
12318 12320     1 
12318 12321     1 
12318 12322     1 
12319 12326     1 
12319 12327     1 
12319 12328     1 
12320 12323     1 
12320 12324     1 
12320 12325     1 
12321 12323     1 
12321 12324     1 
12321 12325     1 
12323 12326     1 
12323 12327     1 
12323 12328     1 
12324 12326     1 
12324 12327     1 
12324 12328     1 
12329 12346     1 
12329 12347     1 
12329 12351     1 
12330 12334     1 
12330 12335     1 
12330 12336     1 
12330 12338     1 
12330 12339     1 
12330 12340     1 
12330 12342     1 
12330 12343     1 
12330 12344     1 
12330 12348     1 
12331 12333     1 
12331 12337     1 
12331 12341     1 
12331 12346     1 
12331 12347     1 
12331 12351     1 
12332 12333     1 
12332 12337     1 
12332 12341     1 
12332 12346     1 
12332 12347     1 
12332 12351     1 
12333 12338     1 
12333 12339     1 
12333 12340     1 
12333 12342     1 
12333 12343     1 
12333 12344     1 
12333 12345     1 
12334 12337     1 
12334 12341     1 
12335 12337     1 
12335 12341     1 
12336 12337     1 
12336 12341     1 
12337 12342     1 
12337 12343     1 
12337 12344     1 
12337 12345     1 
12338 12341     1 
12339 12341     1 
12340 12341     1 
12341 12345     1 
12345 12349     1 
12345 12350     1 
12345 12352     1 
12346 12348     1 
12347 12348     1 
12348 12354     1 
12348 12355     1 
12348 12356     1 
12349 12353     1 
12350 12353     1 
12351 12353     1 
12352 12357     1 
12352 12358     1 
12352 12364     1 
12353 12359     1 
12353 12365     1 
12353 12366     1 
12353 12367     1 
12354 12357     1 
12354 12358     1 
12354 12364     1 
12355 12357     1 
12355 12358     1 
12355 12364     1 
12356 12360     1 
12356 12361     1 
12356 12368     1 
12357 12359     1 
12357 12365     1 
12357 12366     1 
12357 12367     1 
12358 12362     1 
12358 12363     1 
12358 12365     1 
12358 12366     1 
12358 12367     1 
12358 12373     1 
12359 12364     1 
12359 12374     1 
12359 12375     1 
12359 12376     1 
12360 12362     1 
12360 12363     1 
12360 12373     1 
12361 12377     1 
12361 12378     1 
12361 12379     1 
12362 12374     1 
12362 12375     1 
12362 12376     1 
12363 12374     1 
12363 12375     1 
12363 12376     1 
12364 12369     1 
12364 12370     1 
12365 12368     1 
12366 12368     1 
12367 12371     1 
12367 12372     1 
12367 12420     1 
12368 12421     1 
12368 12422     1 
12368 12423     1 
12369 12371     1 
12369 12372     1 
12369 12420     1 
12370 12424     1 
12370 12425     1 
12370 12426     1 
12371 12421     1 
12371 12422     1 
12371 12423     1 
12372 12421     1 
12372 12422     1 
12372 12423     1 
12373 12380     1 
12373 12381     1 
12373 12382     1 
12374 12377     1 
12374 12378     1 
12374 12379     1 
12375 12377     1 
12375 12378     1 
12375 12379     1 
12376 12383     1 
12376 12384     1 
12376 12385     1 
12377 12380     1 
12377 12381     1 
12377 12382     1 
12378 12380     1 
12378 12381     1 
12378 12382     1 
12379 12386     1 
12379 12387     1 
12379 12388     1 
12380 12383     1 
12380 12384     1 
12380 12385     1 
12381 12383     1 
12381 12384     1 
12381 12385     1 
12382 12389     1 
12382 12390     1 
12382 12391     1 
12383 12386     1 
12383 12387     1 
12383 12388     1 
12384 12386     1 
12384 12387     1 
12384 12388     1 
12385 12392     1 
12385 12393     1 
12386 12389     1 
12386 12390     1 
12386 12391     1 
12387 12389     1 
12387 12390     1 
12387 12391     1 
12388 12394     1 
12388 12395     1 
12389 12392     1 
12389 12393     1 
12390 12392     1 
12390 12393     1 
12391 12396     1 
12391 12397     1 
12391 12398     1 
12392 12394     1 
12392 12395     1 
12393 12399     1 
12393 12400     1 
12393 12401     1 
12394 12396     1 
12394 12397     1 
12394 12398     1 
12395 12402     1 
12395 12403     1 
12395 12404     1 
12396 12399     1 
12396 12400     1 
12396 12401     1 
12397 12399     1 
12397 12400     1 
12397 12401     1 
12398 12405     1 
12398 12406     1 
12398 12407     1 
12399 12402     1 
12399 12403     1 
12399 12404     1 
12400 12402     1 
12400 12403     1 
12400 12404     1 
12401 12408     1 
12401 12409     1 
12401 12410     1 
12402 12405     1 
12402 12406     1 
12402 12407     1 
12403 12405     1 
12403 12406     1 
12403 12407     1 
12404 12411     1 
12404 12412     1 
12404 12413     1 
12405 12408     1 
12405 12409     1 
12405 12410     1 
12406 12408     1 
12406 12409     1 
12406 12410     1 
12407 12414     1 
12407 12415     1 
12407 12416     1 
12408 12411     1 
12408 12412     1 
12408 12413     1 
12409 12411     1 
12409 12412     1 
12409 12413     1 
12410 12417     1 
12410 12418     1 
12410 12419     1 
12411 12414     1 
12411 12415     1 
12411 12416     1 
12412 12414     1 
12412 12415     1 
12412 12416     1 
12414 12417     1 
12414 12418     1 
12414 12419     1 
12415 12417     1 
12415 12418     1 
12415 12419     1 
12420 12427     1 
12420 12428     1 
12420 12429     1 
12421 12424     1 
12421 12425     1 
12421 12426     1 
12422 12424     1 
12422 12425     1 
12422 12426     1 
12423 12430     1 
12423 12431     1 
12423 12432     1 
12424 12427     1 
12424 12428     1 
12424 12429     1 
12425 12427     1 
12425 12428     1 
12425 12429     1 
12426 12433     1 
12426 12434     1 
12426 12435     1 
12427 12430     1 
12427 12431     1 
12427 12432     1 
12428 12430     1 
12428 12431     1 
12428 12432     1 
12429 12436     1 
12429 12437     1 
12429 12438     1 
12430 12433     1 
12430 12434     1 
12430 12435     1 
12431 12433     1 
12431 12434     1 
12431 12435     1 
12432 12439     1 
12432 12440     1 
12432 12441     1 
12433 12436     1 
12433 12437     1 
12433 12438     1 
12434 12436     1 
12434 12437     1 
12434 12438     1 
12435 12442     1 
12435 12443     1 
12435 12444     1 
12436 12439     1 
12436 12440     1 
12436 12441     1 
12437 12439     1 
12437 12440     1 
12437 12441     1 
12438 12445     1 
12438 12446     1 
12438 12447     1 
12439 12442     1 
12439 12443     1 
12439 12444     1 
12440 12442     1 
12440 12443     1 
12440 12444     1 
12441 12448     1 
12441 12449     1 
12441 12450     1 
12442 12445     1 
12442 12446     1 
12442 12447     1 
12443 12445     1 
12443 12446     1 
12443 12447     1 
12444 12451     1 
12444 12452     1 
12444 12453     1 
12445 12448     1 
12445 12449     1 
12445 12450     1 
12446 12448     1 
12446 12449     1 
12446 12450     1 
12447 12454     1 
12447 12455     1 
12447 12456     1 
12448 12451     1 
12448 12452     1 
12448 12453     1 
12449 12451     1 
12449 12452     1 
12449 12453     1 
12450 12457     1 
12450 12458     1 
12450 12459     1 
12451 12454     1 
12451 12455     1 
12451 12456     1 
12452 12454     1 
12452 12455     1 
12452 12456     1 
12453 12460     1 
12453 12461     1 
12453 12462     1 
12454 12457     1 
12454 12458     1 
12454 12459     1 
12455 12457     1 
12455 12458     1 
12455 12459     1 
12457 12460     1 
12457 12461     1 
12457 12462     1 
12458 12460     1 
12458 12461     1 
12458 12462     1 
12463 12480     1 
12463 12481     1 
12463 12485     1 
12464 12468     1 
12464 12469     1 
12464 12470     1 
12464 12472     1 
12464 12473     1 
12464 12474     1 
12464 12476     1 
12464 12477     1 
12464 12478     1 
12464 12482     1 
12465 12467     1 
12465 12471     1 
12465 12475     1 
12465 12480     1 
12465 12481     1 
12465 12485     1 
12466 12467     1 
12466 12471     1 
12466 12475     1 
12466 12480     1 
12466 12481     1 
12466 12485     1 
12467 12472     1 
12467 12473     1 
12467 12474     1 
12467 12476     1 
12467 12477     1 
12467 12478     1 
12467 12479     1 
12468 12471     1 
12468 12475     1 
12469 12471     1 
12469 12475     1 
12470 12471     1 
12470 12475     1 
12471 12476     1 
12471 12477     1 
12471 12478     1 
12471 12479     1 
12472 12475     1 
12473 12475     1 
12474 12475     1 
12475 12479     1 
12479 12483     1 
12479 12484     1 
12479 12486     1 
12480 12482     1 
12481 12482     1 
12482 12488     1 
12482 12489     1 
12482 12490     1 
12483 12487     1 
12484 12487     1 
12485 12487     1 
12486 12491     1 
12486 12492     1 
12486 12498     1 
12487 12493     1 
12487 12499     1 
12487 12500     1 
12487 12501     1 
12488 12491     1 
12488 12492     1 
12488 12498     1 
12489 12491     1 
12489 12492     1 
12489 12498     1 
12490 12494     1 
12490 12495     1 
12490 12502     1 
12491 12493     1 
12491 12499     1 
12491 12500     1 
12491 12501     1 
12492 12496     1 
12492 12497     1 
12492 12499     1 
12492 12500     1 
12492 12501     1 
12492 12507     1 
12493 12498     1 
12493 12508     1 
12493 12509     1 
12493 12510     1 
12494 12496     1 
12494 12497     1 
12494 12507     1 
12495 12511     1 
12495 12512     1 
12495 12513     1 
12496 12508     1 
12496 12509     1 
12496 12510     1 
12497 12508     1 
12497 12509     1 
12497 12510     1 
12498 12503     1 
12498 12504     1 
12499 12502     1 
12500 12502     1 
12501 12505     1 
12501 12506     1 
12501 12554     1 
12502 12555     1 
12502 12556     1 
12502 12557     1 
12503 12505     1 
12503 12506     1 
12503 12554     1 
12504 12558     1 
12504 12559     1 
12504 12560     1 
12505 12555     1 
12505 12556     1 
12505 12557     1 
12506 12555     1 
12506 12556     1 
12506 12557     1 
12507 12514     1 
12507 12515     1 
12507 12516     1 
12508 12511     1 
12508 12512     1 
12508 12513     1 
12509 12511     1 
12509 12512     1 
12509 12513     1 
12510 12517     1 
12510 12518     1 
12510 12519     1 
12511 12514     1 
12511 12515     1 
12511 12516     1 
12512 12514     1 
12512 12515     1 
12512 12516     1 
12513 12520     1 
12513 12521     1 
12513 12522     1 
12514 12517     1 
12514 12518     1 
12514 12519     1 
12515 12517     1 
12515 12518     1 
12515 12519     1 
12516 12523     1 
12516 12524     1 
12516 12525     1 
12517 12520     1 
12517 12521     1 
12517 12522     1 
12518 12520     1 
12518 12521     1 
12518 12522     1 
12519 12526     1 
12519 12527     1 
12520 12523     1 
12520 12524     1 
12520 12525     1 
12521 12523     1 
12521 12524     1 
12521 12525     1 
12522 12528     1 
12522 12529     1 
12523 12526     1 
12523 12527     1 
12524 12526     1 
12524 12527     1 
12525 12530     1 
12525 12531     1 
12525 12532     1 
12526 12528     1 
12526 12529     1 
12527 12533     1 
12527 12534     1 
12527 12535     1 
12528 12530     1 
12528 12531     1 
12528 12532     1 
12529 12536     1 
12529 12537     1 
12529 12538     1 
12530 12533     1 
12530 12534     1 
12530 12535     1 
12531 12533     1 
12531 12534     1 
12531 12535     1 
12532 12539     1 
12532 12540     1 
12532 12541     1 
12533 12536     1 
12533 12537     1 
12533 12538     1 
12534 12536     1 
12534 12537     1 
12534 12538     1 
12535 12542     1 
12535 12543     1 
12535 12544     1 
12536 12539     1 
12536 12540     1 
12536 12541     1 
12537 12539     1 
12537 12540     1 
12537 12541     1 
12538 12545     1 
12538 12546     1 
12538 12547     1 
12539 12542     1 
12539 12543     1 
12539 12544     1 
12540 12542     1 
12540 12543     1 
12540 12544     1 
12541 12548     1 
12541 12549     1 
12541 12550     1 
12542 12545     1 
12542 12546     1 
12542 12547     1 
12543 12545     1 
12543 12546     1 
12543 12547     1 
12544 12551     1 
12544 12552     1 
12544 12553     1 
12545 12548     1 
12545 12549     1 
12545 12550     1 
12546 12548     1 
12546 12549     1 
12546 12550     1 
12548 12551     1 
12548 12552     1 
12548 12553     1 
12549 12551     1 
12549 12552     1 
12549 12553     1 
12554 12561     1 
12554 12562     1 
12554 12563     1 
12555 12558     1 
12555 12559     1 
12555 12560     1 
12556 12558     1 
12556 12559     1 
12556 12560     1 
12557 12564     1 
12557 12565     1 
12557 12566     1 
12558 12561     1 
12558 12562     1 
12558 12563     1 
12559 12561     1 
12559 12562     1 
12559 12563     1 
12560 12567     1 
12560 12568     1 
12560 12569     1 
12561 12564     1 
12561 12565     1 
12561 12566     1 
12562 12564     1 
12562 12565     1 
12562 12566     1 
12563 12570     1 
12563 12571     1 
12563 12572     1 
12564 12567     1 
12564 12568     1 
12564 12569     1 
12565 12567     1 
12565 12568     1 
12565 12569     1 
12566 12573     1 
12566 12574     1 
12566 12575     1 
12567 12570     1 
12567 12571     1 
12567 12572     1 
12568 12570     1 
12568 12571     1 
12568 12572     1 
12569 12576     1 
12569 12577     1 
12569 12578     1 
12570 12573     1 
12570 12574     1 
12570 12575     1 
12571 12573     1 
12571 12574     1 
12571 12575     1 
12572 12579     1 
12572 12580     1 
12572 12581     1 
12573 12576     1 
12573 12577     1 
12573 12578     1 
12574 12576     1 
12574 12577     1 
12574 12578     1 
12575 12582     1 
12575 12583     1 
12575 12584     1 
12576 12579     1 
12576 12580     1 
12576 12581     1 
12577 12579     1 
12577 12580     1 
12577 12581     1 
12578 12585     1 
12578 12586     1 
12578 12587     1 
12579 12582     1 
12579 12583     1 
12579 12584     1 
12580 12582     1 
12580 12583     1 
12580 12584     1 
12581 12588     1 
12581 12589     1 
12581 12590     1 
12582 12585     1 
12582 12586     1 
12582 12587     1 
12583 12585     1 
12583 12586     1 
12583 12587     1 
12584 12591     1 
12584 12592     1 
12584 12593     1 
12585 12588     1 
12585 12589     1 
12585 12590     1 
12586 12588     1 
12586 12589     1 
12586 12590     1 
12587 12594     1 
12587 12595     1 
12587 12596     1 
12588 12591     1 
12588 12592     1 
12588 12593     1 
12589 12591     1 
12589 12592     1 
12589 12593     1 
12591 12594     1 
12591 12595     1 
12591 12596     1 
12592 12594     1 
12592 12595     1 
12592 12596     1 
12597 12614     1 
12597 12615     1 
12597 12619     1 
12598 12602     1 
12598 12603     1 
12598 12604     1 
12598 12606     1 
12598 12607     1 
12598 12608     1 
12598 12610     1 
12598 12611     1 
12598 12612     1 
12598 12616     1 
12599 12601     1 
12599 12605     1 
12599 12609     1 
12599 12614     1 
12599 12615     1 
12599 12619     1 
12600 12601     1 
12600 12605     1 
12600 12609     1 
12600 12614     1 
12600 12615     1 
12600 12619     1 
12601 12606     1 
12601 12607     1 
12601 12608     1 
12601 12610     1 
12601 12611     1 
12601 12612     1 
12601 12613     1 
12602 12605     1 
12602 12609     1 
12603 12605     1 
12603 12609     1 
12604 12605     1 
12604 12609     1 
12605 12610     1 
12605 12611     1 
12605 12612     1 
12605 12613     1 
12606 12609     1 
12607 12609     1 
12608 12609     1 
12609 12613     1 
12613 12617     1 
12613 12618     1 
12613 12620     1 
12614 12616     1 
12615 12616     1 
12616 12622     1 
12616 12623     1 
12616 12624     1 
12617 12621     1 
12618 12621     1 
12619 12621     1 
12620 12625     1 
12620 12626     1 
12620 12632     1 
12621 12627     1 
12621 12633     1 
12621 12634     1 
12621 12635     1 
12622 12625     1 
12622 12626     1 
12622 12632     1 
12623 12625     1 
12623 12626     1 
12623 12632     1 
12624 12628     1 
12624 12629     1 
12624 12636     1 
12625 12627     1 
12625 12633     1 
12625 12634     1 
12625 12635     1 
12626 12630     1 
12626 12631     1 
12626 12633     1 
12626 12634     1 
12626 12635     1 
12626 12641     1 
12627 12632     1 
12627 12642     1 
12627 12643     1 
12627 12644     1 
12628 12630     1 
12628 12631     1 
12628 12641     1 
12629 12645     1 
12629 12646     1 
12629 12647     1 
12630 12642     1 
12630 12643     1 
12630 12644     1 
12631 12642     1 
12631 12643     1 
12631 12644     1 
12632 12637     1 
12632 12638     1 
12633 12636     1 
12634 12636     1 
12635 12639     1 
12635 12640     1 
12635 12688     1 
12636 12689     1 
12636 12690     1 
12636 12691     1 
12637 12639     1 
12637 12640     1 
12637 12688     1 
12638 12692     1 
12638 12693     1 
12638 12694     1 
12639 12689     1 
12639 12690     1 
12639 12691     1 
12640 12689     1 
12640 12690     1 
12640 12691     1 
12641 12648     1 
12641 12649     1 
12641 12650     1 
12642 12645     1 
12642 12646     1 
12642 12647     1 
12643 12645     1 
12643 12646     1 
12643 12647     1 
12644 12651     1 
12644 12652     1 
12644 12653     1 
12645 12648     1 
12645 12649     1 
12645 12650     1 
12646 12648     1 
12646 12649     1 
12646 12650     1 
12647 12654     1 
12647 12655     1 
12647 12656     1 
12648 12651     1 
12648 12652     1 
12648 12653     1 
12649 12651     1 
12649 12652     1 
12649 12653     1 
12650 12657     1 
12650 12658     1 
12650 12659     1 
12651 12654     1 
12651 12655     1 
12651 12656     1 
12652 12654     1 
12652 12655     1 
12652 12656     1 
12653 12660     1 
12653 12661     1 
12654 12657     1 
12654 12658     1 
12654 12659     1 
12655 12657     1 
12655 12658     1 
12655 12659     1 
12656 12662     1 
12656 12663     1 
12657 12660     1 
12657 12661     1 
12658 12660     1 
12658 12661     1 
12659 12664     1 
12659 12665     1 
12659 12666     1 
12660 12662     1 
12660 12663     1 
12661 12667     1 
12661 12668     1 
12661 12669     1 
12662 12664     1 
12662 12665     1 
12662 12666     1 
12663 12670     1 
12663 12671     1 
12663 12672     1 
12664 12667     1 
12664 12668     1 
12664 12669     1 
12665 12667     1 
12665 12668     1 
12665 12669     1 
12666 12673     1 
12666 12674     1 
12666 12675     1 
12667 12670     1 
12667 12671     1 
12667 12672     1 
12668 12670     1 
12668 12671     1 
12668 12672     1 
12669 12676     1 
12669 12677     1 
12669 12678     1 
12670 12673     1 
12670 12674     1 
12670 12675     1 
12671 12673     1 
12671 12674     1 
12671 12675     1 
12672 12679     1 
12672 12680     1 
12672 12681     1 
12673 12676     1 
12673 12677     1 
12673 12678     1 
12674 12676     1 
12674 12677     1 
12674 12678     1 
12675 12682     1 
12675 12683     1 
12675 12684     1 
12676 12679     1 
12676 12680     1 
12676 12681     1 
12677 12679     1 
12677 12680     1 
12677 12681     1 
12678 12685     1 
12678 12686     1 
12678 12687     1 
12679 12682     1 
12679 12683     1 
12679 12684     1 
12680 12682     1 
12680 12683     1 
12680 12684     1 
12682 12685     1 
12682 12686     1 
12682 12687     1 
12683 12685     1 
12683 12686     1 
12683 12687     1 
12688 12695     1 
12688 12696     1 
12688 12697     1 
12689 12692     1 
12689 12693     1 
12689 12694     1 
12690 12692     1 
12690 12693     1 
12690 12694     1 
12691 12698     1 
12691 12699     1 
12691 12700     1 
12692 12695     1 
12692 12696     1 
12692 12697     1 
12693 12695     1 
12693 12696     1 
12693 12697     1 
12694 12701     1 
12694 12702     1 
12694 12703     1 
12695 12698     1 
12695 12699     1 
12695 12700     1 
12696 12698     1 
12696 12699     1 
12696 12700     1 
12697 12704     1 
12697 12705     1 
12697 12706     1 
12698 12701     1 
12698 12702     1 
12698 12703     1 
12699 12701     1 
12699 12702     1 
12699 12703     1 
12700 12707     1 
12700 12708     1 
12700 12709     1 
12701 12704     1 
12701 12705     1 
12701 12706     1 
12702 12704     1 
12702 12705     1 
12702 12706     1 
12703 12710     1 
12703 12711     1 
12703 12712     1 
12704 12707     1 
12704 12708     1 
12704 12709     1 
12705 12707     1 
12705 12708     1 
12705 12709     1 
12706 12713     1 
12706 12714     1 
12706 12715     1 
12707 12710     1 
12707 12711     1 
12707 12712     1 
12708 12710     1 
12708 12711     1 
12708 12712     1 
12709 12716     1 
12709 12717     1 
12709 12718     1 
12710 12713     1 
12710 12714     1 
12710 12715     1 
12711 12713     1 
12711 12714     1 
12711 12715     1 
12712 12719     1 
12712 12720     1 
12712 12721     1 
12713 12716     1 
12713 12717     1 
12713 12718     1 
12714 12716     1 
12714 12717     1 
12714 12718     1 
12715 12722     1 
12715 12723     1 
12715 12724     1 
12716 12719     1 
12716 12720     1 
12716 12721     1 
12717 12719     1 
12717 12720     1 
12717 12721     1 
12718 12725     1 
12718 12726     1 
12718 12727     1 
12719 12722     1 
12719 12723     1 
12719 12724     1 
12720 12722     1 
12720 12723     1 
12720 12724     1 
12721 12728     1 
12721 12729     1 
12721 12730     1 
12722 12725     1 
12722 12726     1 
12722 12727     1 
12723 12725     1 
12723 12726     1 
12723 12727     1 
12725 12728     1 
12725 12729     1 
12725 12730     1 
12726 12728     1 
12726 12729     1 
12726 12730     1 
12731 12748     1 
12731 12749     1 
12731 12753     1 
12732 12736     1 
12732 12737     1 
12732 12738     1 
12732 12740     1 
12732 12741     1 
12732 12742     1 
12732 12744     1 
12732 12745     1 
12732 12746     1 
12732 12750     1 
12733 12735     1 
12733 12739     1 
12733 12743     1 
12733 12748     1 
12733 12749     1 
12733 12753     1 
12734 12735     1 
12734 12739     1 
12734 12743     1 
12734 12748     1 
12734 12749     1 
12734 12753     1 
12735 12740     1 
12735 12741     1 
12735 12742     1 
12735 12744     1 
12735 12745     1 
12735 12746     1 
12735 12747     1 
12736 12739     1 
12736 12743     1 
12737 12739     1 
12737 12743     1 
12738 12739     1 
12738 12743     1 
12739 12744     1 
12739 12745     1 
12739 12746     1 
12739 12747     1 
12740 12743     1 
12741 12743     1 
12742 12743     1 
12743 12747     1 
12747 12751     1 
12747 12752     1 
12747 12754     1 
12748 12750     1 
12749 12750     1 
12750 12756     1 
12750 12757     1 
12750 12758     1 
12751 12755     1 
12752 12755     1 
12753 12755     1 
12754 12759     1 
12754 12760     1 
12754 12766     1 
12755 12761     1 
12755 12767     1 
12755 12768     1 
12755 12769     1 
12756 12759     1 
12756 12760     1 
12756 12766     1 
12757 12759     1 
12757 12760     1 
12757 12766     1 
12758 12762     1 
12758 12763     1 
12758 12770     1 
12759 12761     1 
12759 12767     1 
12759 12768     1 
12759 12769     1 
12760 12764     1 
12760 12765     1 
12760 12767     1 
12760 12768     1 
12760 12769     1 
12760 12775     1 
12761 12766     1 
12761 12776     1 
12761 12777     1 
12761 12778     1 
12762 12764     1 
12762 12765     1 
12762 12775     1 
12763 12779     1 
12763 12780     1 
12763 12781     1 
12764 12776     1 
12764 12777     1 
12764 12778     1 
12765 12776     1 
12765 12777     1 
12765 12778     1 
12766 12771     1 
12766 12772     1 
12767 12770     1 
12768 12770     1 
12769 12773     1 
12769 12774     1 
12769 12822     1 
12770 12823     1 
12770 12824     1 
12770 12825     1 
12771 12773     1 
12771 12774     1 
12771 12822     1 
12772 12826     1 
12772 12827     1 
12772 12828     1 
12773 12823     1 
12773 12824     1 
12773 12825     1 
12774 12823     1 
12774 12824     1 
12774 12825     1 
12775 12782     1 
12775 12783     1 
12775 12784     1 
12776 12779     1 
12776 12780     1 
12776 12781     1 
12777 12779     1 
12777 12780     1 
12777 12781     1 
12778 12785     1 
12778 12786     1 
12778 12787     1 
12779 12782     1 
12779 12783     1 
12779 12784     1 
12780 12782     1 
12780 12783     1 
12780 12784     1 
12781 12788     1 
12781 12789     1 
12781 12790     1 
12782 12785     1 
12782 12786     1 
12782 12787     1 
12783 12785     1 
12783 12786     1 
12783 12787     1 
12784 12791     1 
12784 12792     1 
12784 12793     1 
12785 12788     1 
12785 12789     1 
12785 12790     1 
12786 12788     1 
12786 12789     1 
12786 12790     1 
12787 12794     1 
12787 12795     1 
12788 12791     1 
12788 12792     1 
12788 12793     1 
12789 12791     1 
12789 12792     1 
12789 12793     1 
12790 12796     1 
12790 12797     1 
12791 12794     1 
12791 12795     1 
12792 12794     1 
12792 12795     1 
12793 12798     1 
12793 12799     1 
12793 12800     1 
12794 12796     1 
12794 12797     1 
12795 12801     1 
12795 12802     1 
12795 12803     1 
12796 12798     1 
12796 12799     1 
12796 12800     1 
12797 12804     1 
12797 12805     1 
12797 12806     1 
12798 12801     1 
12798 12802     1 
12798 12803     1 
12799 12801     1 
12799 12802     1 
12799 12803     1 
12800 12807     1 
12800 12808     1 
12800 12809     1 
12801 12804     1 
12801 12805     1 
12801 12806     1 
12802 12804     1 
12802 12805     1 
12802 12806     1 
12803 12810     1 
12803 12811     1 
12803 12812     1 
12804 12807     1 
12804 12808     1 
12804 12809     1 
12805 12807     1 
12805 12808     1 
12805 12809     1 
12806 12813     1 
12806 12814     1 
12806 12815     1 
12807 12810     1 
12807 12811     1 
12807 12812     1 
12808 12810     1 
12808 12811     1 
12808 12812     1 
12809 12816     1 
12809 12817     1 
12809 12818     1 
12810 12813     1 
12810 12814     1 
12810 12815     1 
12811 12813     1 
12811 12814     1 
12811 12815     1 
12812 12819     1 
12812 12820     1 
12812 12821     1 
12813 12816     1 
12813 12817     1 
12813 12818     1 
12814 12816     1 
12814 12817     1 
12814 12818     1 
12816 12819     1 
12816 12820     1 
12816 12821     1 
12817 12819     1 
12817 12820     1 
12817 12821     1 
12822 12829     1 
12822 12830     1 
12822 12831     1 
12823 12826     1 
12823 12827     1 
12823 12828     1 
12824 12826     1 
12824 12827     1 
12824 12828     1 
12825 12832     1 
12825 12833     1 
12825 12834     1 
12826 12829     1 
12826 12830     1 
12826 12831     1 
12827 12829     1 
12827 12830     1 
12827 12831     1 
12828 12835     1 
12828 12836     1 
12828 12837     1 
12829 12832     1 
12829 12833     1 
12829 12834     1 
12830 12832     1 
12830 12833     1 
12830 12834     1 
12831 12838     1 
12831 12839     1 
12831 12840     1 
12832 12835     1 
12832 12836     1 
12832 12837     1 
12833 12835     1 
12833 12836     1 
12833 12837     1 
12834 12841     1 
12834 12842     1 
12834 12843     1 
12835 12838     1 
12835 12839     1 
12835 12840     1 
12836 12838     1 
12836 12839     1 
12836 12840     1 
12837 12844     1 
12837 12845     1 
12837 12846     1 
12838 12841     1 
12838 12842     1 
12838 12843     1 
12839 12841     1 
12839 12842     1 
12839 12843     1 
12840 12847     1 
12840 12848     1 
12840 12849     1 
12841 12844     1 
12841 12845     1 
12841 12846     1 
12842 12844     1 
12842 12845     1 
12842 12846     1 
12843 12850     1 
12843 12851     1 
12843 12852     1 
12844 12847     1 
12844 12848     1 
12844 12849     1 
12845 12847     1 
12845 12848     1 
12845 12849     1 
12846 12853     1 
12846 12854     1 
12846 12855     1 
12847 12850     1 
12847 12851     1 
12847 12852     1 
12848 12850     1 
12848 12851     1 
12848 12852     1 
12849 12856     1 
12849 12857     1 
12849 12858     1 
12850 12853     1 
12850 12854     1 
12850 12855     1 
12851 12853     1 
12851 12854     1 
12851 12855     1 
12852 12859     1 
12852 12860     1 
12852 12861     1 
12853 12856     1 
12853 12857     1 
12853 12858     1 
12854 12856     1 
12854 12857     1 
12854 12858     1 
12855 12862     1 
12855 12863     1 
12855 12864     1 
12856 12859     1 
12856 12860     1 
12856 12861     1 
12857 12859     1 
12857 12860     1 
12857 12861     1 
12859 12862     1 
12859 12863     1 
12859 12864     1 
12860 12862     1 
12860 12863     1 
12860 12864     1 
12865 12882     1 
12865 12883     1 
12865 12887     1 
12866 12870     1 
12866 12871     1 
12866 12872     1 
12866 12874     1 
12866 12875     1 
12866 12876     1 
12866 12878     1 
12866 12879     1 
12866 12880     1 
12866 12884     1 
12867 12869     1 
12867 12873     1 
12867 12877     1 
12867 12882     1 
12867 12883     1 
12867 12887     1 
12868 12869     1 
12868 12873     1 
12868 12877     1 
12868 12882     1 
12868 12883     1 
12868 12887     1 
12869 12874     1 
12869 12875     1 
12869 12876     1 
12869 12878     1 
12869 12879     1 
12869 12880     1 
12869 12881     1 
12870 12873     1 
12870 12877     1 
12871 12873     1 
12871 12877     1 
12872 12873     1 
12872 12877     1 
12873 12878     1 
12873 12879     1 
12873 12880     1 
12873 12881     1 
12874 12877     1 
12875 12877     1 
12876 12877     1 
12877 12881     1 
12881 12885     1 
12881 12886     1 
12881 12888     1 
12882 12884     1 
12883 12884     1 
12884 12890     1 
12884 12891     1 
12884 12892     1 
12885 12889     1 
12886 12889     1 
12887 12889     1 
12888 12893     1 
12888 12894     1 
12888 12900     1 
12889 12895     1 
12889 12901     1 
12889 12902     1 
12889 12903     1 
12890 12893     1 
12890 12894     1 
12890 12900     1 
12891 12893     1 
12891 12894     1 
12891 12900     1 
12892 12896     1 
12892 12897     1 
12892 12904     1 
12893 12895     1 
12893 12901     1 
12893 12902     1 
12893 12903     1 
12894 12898     1 
12894 12899     1 
12894 12901     1 
12894 12902     1 
12894 12903     1 
12894 12909     1 
12895 12900     1 
12895 12910     1 
12895 12911     1 
12895 12912     1 
12896 12898     1 
12896 12899     1 
12896 12909     1 
12897 12913     1 
12897 12914     1 
12897 12915     1 
12898 12910     1 
12898 12911     1 
12898 12912     1 
12899 12910     1 
12899 12911     1 
12899 12912     1 
12900 12905     1 
12900 12906     1 
12901 12904     1 
12902 12904     1 
12903 12907     1 
12903 12908     1 
12903 12956     1 
12904 12957     1 
12904 12958     1 
12904 12959     1 
12905 12907     1 
12905 12908     1 
12905 12956     1 
12906 12960     1 
12906 12961     1 
12906 12962     1 
12907 12957     1 
12907 12958     1 
12907 12959     1 
12908 12957     1 
12908 12958     1 
12908 12959     1 
12909 12916     1 
12909 12917     1 
12909 12918     1 
12910 12913     1 
12910 12914     1 
12910 12915     1 
12911 12913     1 
12911 12914     1 
12911 12915     1 
12912 12919     1 
12912 12920     1 
12912 12921     1 
12913 12916     1 
12913 12917     1 
12913 12918     1 
12914 12916     1 
12914 12917     1 
12914 12918     1 
12915 12922     1 
12915 12923     1 
12915 12924     1 
12916 12919     1 
12916 12920     1 
12916 12921     1 
12917 12919     1 
12917 12920     1 
12917 12921     1 
12918 12925     1 
12918 12926     1 
12918 12927     1 
12919 12922     1 
12919 12923     1 
12919 12924     1 
12920 12922     1 
12920 12923     1 
12920 12924     1 
12921 12928     1 
12921 12929     1 
12922 12925     1 
12922 12926     1 
12922 12927     1 
12923 12925     1 
12923 12926     1 
12923 12927     1 
12924 12930     1 
12924 12931     1 
12925 12928     1 
12925 12929     1 
12926 12928     1 
12926 12929     1 
12927 12932     1 
12927 12933     1 
12927 12934     1 
12928 12930     1 
12928 12931     1 
12929 12935     1 
12929 12936     1 
12929 12937     1 
12930 12932     1 
12930 12933     1 
12930 12934     1 
12931 12938     1 
12931 12939     1 
12931 12940     1 
12932 12935     1 
12932 12936     1 
12932 12937     1 
12933 12935     1 
12933 12936     1 
12933 12937     1 
12934 12941     1 
12934 12942     1 
12934 12943     1 
12935 12938     1 
12935 12939     1 
12935 12940     1 
12936 12938     1 
12936 12939     1 
12936 12940     1 
12937 12944     1 
12937 12945     1 
12937 12946     1 
12938 12941     1 
12938 12942     1 
12938 12943     1 
12939 12941     1 
12939 12942     1 
12939 12943     1 
12940 12947     1 
12940 12948     1 
12940 12949     1 
12941 12944     1 
12941 12945     1 
12941 12946     1 
12942 12944     1 
12942 12945     1 
12942 12946     1 
12943 12950     1 
12943 12951     1 
12943 12952     1 
12944 12947     1 
12944 12948     1 
12944 12949     1 
12945 12947     1 
12945 12948     1 
12945 12949     1 
12946 12953     1 
12946 12954     1 
12946 12955     1 
12947 12950     1 
12947 12951     1 
12947 12952     1 
12948 12950     1 
12948 12951     1 
12948 12952     1 
12950 12953     1 
12950 12954     1 
12950 12955     1 
12951 12953     1 
12951 12954     1 
12951 12955     1 
12956 12963     1 
12956 12964     1 
12956 12965     1 
12957 12960     1 
12957 12961     1 
12957 12962     1 
12958 12960     1 
12958 12961     1 
12958 12962     1 
12959 12966     1 
12959 12967     1 
12959 12968     1 
12960 12963     1 
12960 12964     1 
12960 12965     1 
12961 12963     1 
12961 12964     1 
12961 12965     1 
12962 12969     1 
12962 12970     1 
12962 12971     1 
12963 12966     1 
12963 12967     1 
12963 12968     1 
12964 12966     1 
12964 12967     1 
12964 12968     1 
12965 12972     1 
12965 12973     1 
12965 12974     1 
12966 12969     1 
12966 12970     1 
12966 12971     1 
12967 12969     1 
12967 12970     1 
12967 12971     1 
12968 12975     1 
12968 12976     1 
12968 12977     1 
12969 12972     1 
12969 12973     1 
12969 12974     1 
12970 12972     1 
12970 12973     1 
12970 12974     1 
12971 12978     1 
12971 12979     1 
12971 12980     1 
12972 12975     1 
12972 12976     1 
12972 12977     1 
12973 12975     1 
12973 12976     1 
12973 12977     1 
12974 12981     1 
12974 12982     1 
12974 12983     1 
12975 12978     1 
12975 12979     1 
12975 12980     1 
12976 12978     1 
12976 12979     1 
12976 12980     1 
12977 12984     1 
12977 12985     1 
12977 12986     1 
12978 12981     1 
12978 12982     1 
12978 12983     1 
12979 12981     1 
12979 12982     1 
12979 12983     1 
12980 12987     1 
12980 12988     1 
12980 12989     1 
12981 12984     1 
12981 12985     1 
12981 12986     1 
12982 12984     1 
12982 12985     1 
12982 12986     1 
12983 12990     1 
12983 12991     1 
12983 12992     1 
12984 12987     1 
12984 12988     1 
12984 12989     1 
12985 12987     1 
12985 12988     1 
12985 12989     1 
12986 12993     1 
12986 12994     1 
12986 12995     1 
12987 12990     1 
12987 12991     1 
12987 12992     1 
12988 12990     1 
12988 12991     1 
12988 12992     1 
12989 12996     1 
12989 12997     1 
12989 12998     1 
12990 12993     1 
12990 12994     1 
12990 12995     1 
12991 12993     1 
12991 12994     1 
12991 12995     1 
12993 12996     1 
12993 12997     1 
12993 12998     1 
12994 12996     1 
12994 12997     1 
12994 12998     1 
12999 13016     1 
12999 13017     1 
12999 13021     1 
13000 13004     1 
13000 13005     1 
13000 13006     1 
13000 13008     1 
13000 13009     1 
13000 13010     1 
13000 13012     1 
13000 13013     1 
13000 13014     1 
13000 13018     1 
13001 13003     1 
13001 13007     1 
13001 13011     1 
13001 13016     1 
13001 13017     1 
13001 13021     1 
13002 13003     1 
13002 13007     1 
13002 13011     1 
13002 13016     1 
13002 13017     1 
13002 13021     1 
13003 13008     1 
13003 13009     1 
13003 13010     1 
13003 13012     1 
13003 13013     1 
13003 13014     1 
13003 13015     1 
13004 13007     1 
13004 13011     1 
13005 13007     1 
13005 13011     1 
13006 13007     1 
13006 13011     1 
13007 13012     1 
13007 13013     1 
13007 13014     1 
13007 13015     1 
13008 13011     1 
13009 13011     1 
13010 13011     1 
13011 13015     1 
13015 13019     1 
13015 13020     1 
13015 13022     1 
13016 13018     1 
13017 13018     1 
13018 13024     1 
13018 13025     1 
13018 13026     1 
13019 13023     1 
13020 13023     1 
13021 13023     1 
13022 13027     1 
13022 13028     1 
13022 13034     1 
13023 13029     1 
13023 13035     1 
13023 13036     1 
13023 13037     1 
13024 13027     1 
13024 13028     1 
13024 13034     1 
13025 13027     1 
13025 13028     1 
13025 13034     1 
13026 13030     1 
13026 13031     1 
13026 13038     1 
13027 13029     1 
13027 13035     1 
13027 13036     1 
13027 13037     1 
13028 13032     1 
13028 13033     1 
13028 13035     1 
13028 13036     1 
13028 13037     1 
13028 13043     1 
13029 13034     1 
13029 13044     1 
13029 13045     1 
13029 13046     1 
13030 13032     1 
13030 13033     1 
13030 13043     1 
13031 13047     1 
13031 13048     1 
13031 13049     1 
13032 13044     1 
13032 13045     1 
13032 13046     1 
13033 13044     1 
13033 13045     1 
13033 13046     1 
13034 13039     1 
13034 13040     1 
13035 13038     1 
13036 13038     1 
13037 13041     1 
13037 13042     1 
13037 13090     1 
13038 13091     1 
13038 13092     1 
13038 13093     1 
13039 13041     1 
13039 13042     1 
13039 13090     1 
13040 13094     1 
13040 13095     1 
13040 13096     1 
13041 13091     1 
13041 13092     1 
13041 13093     1 
13042 13091     1 
13042 13092     1 
13042 13093     1 
13043 13050     1 
13043 13051     1 
13043 13052     1 
13044 13047     1 
13044 13048     1 
13044 13049     1 
13045 13047     1 
13045 13048     1 
13045 13049     1 
13046 13053     1 
13046 13054     1 
13046 13055     1 
13047 13050     1 
13047 13051     1 
13047 13052     1 
13048 13050     1 
13048 13051     1 
13048 13052     1 
13049 13056     1 
13049 13057     1 
13049 13058     1 
13050 13053     1 
13050 13054     1 
13050 13055     1 
13051 13053     1 
13051 13054     1 
13051 13055     1 
13052 13059     1 
13052 13060     1 
13052 13061     1 
13053 13056     1 
13053 13057     1 
13053 13058     1 
13054 13056     1 
13054 13057     1 
13054 13058     1 
13055 13062     1 
13055 13063     1 
13056 13059     1 
13056 13060     1 
13056 13061     1 
13057 13059     1 
13057 13060     1 
13057 13061     1 
13058 13064     1 
13058 13065     1 
13059 13062     1 
13059 13063     1 
13060 13062     1 
13060 13063     1 
13061 13066     1 
13061 13067     1 
13061 13068     1 
13062 13064     1 
13062 13065     1 
13063 13069     1 
13063 13070     1 
13063 13071     1 
13064 13066     1 
13064 13067     1 
13064 13068     1 
13065 13072     1 
13065 13073     1 
13065 13074     1 
13066 13069     1 
13066 13070     1 
13066 13071     1 
13067 13069     1 
13067 13070     1 
13067 13071     1 
13068 13075     1 
13068 13076     1 
13068 13077     1 
13069 13072     1 
13069 13073     1 
13069 13074     1 
13070 13072     1 
13070 13073     1 
13070 13074     1 
13071 13078     1 
13071 13079     1 
13071 13080     1 
13072 13075     1 
13072 13076     1 
13072 13077     1 
13073 13075     1 
13073 13076     1 
13073 13077     1 
13074 13081     1 
13074 13082     1 
13074 13083     1 
13075 13078     1 
13075 13079     1 
13075 13080     1 
13076 13078     1 
13076 13079     1 
13076 13080     1 
13077 13084     1 
13077 13085     1 
13077 13086     1 
13078 13081     1 
13078 13082     1 
13078 13083     1 
13079 13081     1 
13079 13082     1 
13079 13083     1 
13080 13087     1 
13080 13088     1 
13080 13089     1 
13081 13084     1 
13081 13085     1 
13081 13086     1 
13082 13084     1 
13082 13085     1 
13082 13086     1 
13084 13087     1 
13084 13088     1 
13084 13089     1 
13085 13087     1 
13085 13088     1 
13085 13089     1 
13090 13097     1 
13090 13098     1 
13090 13099     1 
13091 13094     1 
13091 13095     1 
13091 13096     1 
13092 13094     1 
13092 13095     1 
13092 13096     1 
13093 13100     1 
13093 13101     1 
13093 13102     1 
13094 13097     1 
13094 13098     1 
13094 13099     1 
13095 13097     1 
13095 13098     1 
13095 13099     1 
13096 13103     1 
13096 13104     1 
13096 13105     1 
13097 13100     1 
13097 13101     1 
13097 13102     1 
13098 13100     1 
13098 13101     1 
13098 13102     1 
13099 13106     1 
13099 13107     1 
13099 13108     1 
13100 13103     1 
13100 13104     1 
13100 13105     1 
13101 13103     1 
13101 13104     1 
13101 13105     1 
13102 13109     1 
13102 13110     1 
13102 13111     1 
13103 13106     1 
13103 13107     1 
13103 13108     1 
13104 13106     1 
13104 13107     1 
13104 13108     1 
13105 13112     1 
13105 13113     1 
13105 13114     1 
13106 13109     1 
13106 13110     1 
13106 13111     1 
13107 13109     1 
13107 13110     1 
13107 13111     1 
13108 13115     1 
13108 13116     1 
13108 13117     1 
13109 13112     1 
13109 13113     1 
13109 13114     1 
13110 13112     1 
13110 13113     1 
13110 13114     1 
13111 13118     1 
13111 13119     1 
13111 13120     1 
13112 13115     1 
13112 13116     1 
13112 13117     1 
13113 13115     1 
13113 13116     1 
13113 13117     1 
13114 13121     1 
13114 13122     1 
13114 13123     1 
13115 13118     1 
13115 13119     1 
13115 13120     1 
13116 13118     1 
13116 13119     1 
13116 13120     1 
13117 13124     1 
13117 13125     1 
13117 13126     1 
13118 13121     1 
13118 13122     1 
13118 13123     1 
13119 13121     1 
13119 13122     1 
13119 13123     1 
13120 13127     1 
13120 13128     1 
13120 13129     1 
13121 13124     1 
13121 13125     1 
13121 13126     1 
13122 13124     1 
13122 13125     1 
13122 13126     1 
13123 13130     1 
13123 13131     1 
13123 13132     1 
13124 13127     1 
13124 13128     1 
13124 13129     1 
13125 13127     1 
13125 13128     1 
13125 13129     1 
13127 13130     1 
13127 13131     1 
13127 13132     1 
13128 13130     1 
13128 13131     1 
13128 13132     1 
13133 13150     1 
13133 13151     1 
13133 13155     1 
13134 13138     1 
13134 13139     1 
13134 13140     1 
13134 13142     1 
13134 13143     1 
13134 13144     1 
13134 13146     1 
13134 13147     1 
13134 13148     1 
13134 13152     1 
13135 13137     1 
13135 13141     1 
13135 13145     1 
13135 13150     1 
13135 13151     1 
13135 13155     1 
13136 13137     1 
13136 13141     1 
13136 13145     1 
13136 13150     1 
13136 13151     1 
13136 13155     1 
13137 13142     1 
13137 13143     1 
13137 13144     1 
13137 13146     1 
13137 13147     1 
13137 13148     1 
13137 13149     1 
13138 13141     1 
13138 13145     1 
13139 13141     1 
13139 13145     1 
13140 13141     1 
13140 13145     1 
13141 13146     1 
13141 13147     1 
13141 13148     1 
13141 13149     1 
13142 13145     1 
13143 13145     1 
13144 13145     1 
13145 13149     1 
13149 13153     1 
13149 13154     1 
13149 13156     1 
13150 13152     1 
13151 13152     1 
13152 13158     1 
13152 13159     1 
13152 13160     1 
13153 13157     1 
13154 13157     1 
13155 13157     1 
13156 13161     1 
13156 13162     1 
13156 13168     1 
13157 13163     1 
13157 13169     1 
13157 13170     1 
13157 13171     1 
13158 13161     1 
13158 13162     1 
13158 13168     1 
13159 13161     1 
13159 13162     1 
13159 13168     1 
13160 13164     1 
13160 13165     1 
13160 13172     1 
13161 13163     1 
13161 13169     1 
13161 13170     1 
13161 13171     1 
13162 13166     1 
13162 13167     1 
13162 13169     1 
13162 13170     1 
13162 13171     1 
13162 13177     1 
13163 13168     1 
13163 13178     1 
13163 13179     1 
13163 13180     1 
13164 13166     1 
13164 13167     1 
13164 13177     1 
13165 13181     1 
13165 13182     1 
13165 13183     1 
13166 13178     1 
13166 13179     1 
13166 13180     1 
13167 13178     1 
13167 13179     1 
13167 13180     1 
13168 13173     1 
13168 13174     1 
13169 13172     1 
13170 13172     1 
13171 13175     1 
13171 13176     1 
13171 13224     1 
13172 13225     1 
13172 13226     1 
13172 13227     1 
13173 13175     1 
13173 13176     1 
13173 13224     1 
13174 13228     1 
13174 13229     1 
13174 13230     1 
13175 13225     1 
13175 13226     1 
13175 13227     1 
13176 13225     1 
13176 13226     1 
13176 13227     1 
13177 13184     1 
13177 13185     1 
13177 13186     1 
13178 13181     1 
13178 13182     1 
13178 13183     1 
13179 13181     1 
13179 13182     1 
13179 13183     1 
13180 13187     1 
13180 13188     1 
13180 13189     1 
13181 13184     1 
13181 13185     1 
13181 13186     1 
13182 13184     1 
13182 13185     1 
13182 13186     1 
13183 13190     1 
13183 13191     1 
13183 13192     1 
13184 13187     1 
13184 13188     1 
13184 13189     1 
13185 13187     1 
13185 13188     1 
13185 13189     1 
13186 13193     1 
13186 13194     1 
13186 13195     1 
13187 13190     1 
13187 13191     1 
13187 13192     1 
13188 13190     1 
13188 13191     1 
13188 13192     1 
13189 13196     1 
13189 13197     1 
13190 13193     1 
13190 13194     1 
13190 13195     1 
13191 13193     1 
13191 13194     1 
13191 13195     1 
13192 13198     1 
13192 13199     1 
13193 13196     1 
13193 13197     1 
13194 13196     1 
13194 13197     1 
13195 13200     1 
13195 13201     1 
13195 13202     1 
13196 13198     1 
13196 13199     1 
13197 13203     1 
13197 13204     1 
13197 13205     1 
13198 13200     1 
13198 13201     1 
13198 13202     1 
13199 13206     1 
13199 13207     1 
13199 13208     1 
13200 13203     1 
13200 13204     1 
13200 13205     1 
13201 13203     1 
13201 13204     1 
13201 13205     1 
13202 13209     1 
13202 13210     1 
13202 13211     1 
13203 13206     1 
13203 13207     1 
13203 13208     1 
13204 13206     1 
13204 13207     1 
13204 13208     1 
13205 13212     1 
13205 13213     1 
13205 13214     1 
13206 13209     1 
13206 13210     1 
13206 13211     1 
13207 13209     1 
13207 13210     1 
13207 13211     1 
13208 13215     1 
13208 13216     1 
13208 13217     1 
13209 13212     1 
13209 13213     1 
13209 13214     1 
13210 13212     1 
13210 13213     1 
13210 13214     1 
13211 13218     1 
13211 13219     1 
13211 13220     1 
13212 13215     1 
13212 13216     1 
13212 13217     1 
13213 13215     1 
13213 13216     1 
13213 13217     1 
13214 13221     1 
13214 13222     1 
13214 13223     1 
13215 13218     1 
13215 13219     1 
13215 13220     1 
13216 13218     1 
13216 13219     1 
13216 13220     1 
13218 13221     1 
13218 13222     1 
13218 13223     1 
13219 13221     1 
13219 13222     1 
13219 13223     1 
13224 13231     1 
13224 13232     1 
13224 13233     1 
13225 13228     1 
13225 13229     1 
13225 13230     1 
13226 13228     1 
13226 13229     1 
13226 13230     1 
13227 13234     1 
13227 13235     1 
13227 13236     1 
13228 13231     1 
13228 13232     1 
13228 13233     1 
13229 13231     1 
13229 13232     1 
13229 13233     1 
13230 13237     1 
13230 13238     1 
13230 13239     1 
13231 13234     1 
13231 13235     1 
13231 13236     1 
13232 13234     1 
13232 13235     1 
13232 13236     1 
13233 13240     1 
13233 13241     1 
13233 13242     1 
13234 13237     1 
13234 13238     1 
13234 13239     1 
13235 13237     1 
13235 13238     1 
13235 13239     1 
13236 13243     1 
13236 13244     1 
13236 13245     1 
13237 13240     1 
13237 13241     1 
13237 13242     1 
13238 13240     1 
13238 13241     1 
13238 13242     1 
13239 13246     1 
13239 13247     1 
13239 13248     1 
13240 13243     1 
13240 13244     1 
13240 13245     1 
13241 13243     1 
13241 13244     1 
13241 13245     1 
13242 13249     1 
13242 13250     1 
13242 13251     1 
13243 13246     1 
13243 13247     1 
13243 13248     1 
13244 13246     1 
13244 13247     1 
13244 13248     1 
13245 13252     1 
13245 13253     1 
13245 13254     1 
13246 13249     1 
13246 13250     1 
13246 13251     1 
13247 13249     1 
13247 13250     1 
13247 13251     1 
13248 13255     1 
13248 13256     1 
13248 13257     1 
13249 13252     1 
13249 13253     1 
13249 13254     1 
13250 13252     1 
13250 13253     1 
13250 13254     1 
13251 13258     1 
13251 13259     1 
13251 13260     1 
13252 13255     1 
13252 13256     1 
13252 13257     1 
13253 13255     1 
13253 13256     1 
13253 13257     1 
13254 13261     1 
13254 13262     1 
13254 13263     1 
13255 13258     1 
13255 13259     1 
13255 13260     1 
13256 13258     1 
13256 13259     1 
13256 13260     1 
13257 13264     1 
13257 13265     1 
13257 13266     1 
13258 13261     1 
13258 13262     1 
13258 13263     1 
13259 13261     1 
13259 13262     1 
13259 13263     1 
13261 13264     1 
13261 13265     1 
13261 13266     1 
13262 13264     1 
13262 13265     1 
13262 13266     1 
13267 13284     1 
13267 13285     1 
13267 13289     1 
13268 13272     1 
13268 13273     1 
13268 13274     1 
13268 13276     1 
13268 13277     1 
13268 13278     1 
13268 13280     1 
13268 13281     1 
13268 13282     1 
13268 13286     1 
13269 13271     1 
13269 13275     1 
13269 13279     1 
13269 13284     1 
13269 13285     1 
13269 13289     1 
13270 13271     1 
13270 13275     1 
13270 13279     1 
13270 13284     1 
13270 13285     1 
13270 13289     1 
13271 13276     1 
13271 13277     1 
13271 13278     1 
13271 13280     1 
13271 13281     1 
13271 13282     1 
13271 13283     1 
13272 13275     1 
13272 13279     1 
13273 13275     1 
13273 13279     1 
13274 13275     1 
13274 13279     1 
13275 13280     1 
13275 13281     1 
13275 13282     1 
13275 13283     1 
13276 13279     1 
13277 13279     1 
13278 13279     1 
13279 13283     1 
13283 13287     1 
13283 13288     1 
13283 13290     1 
13284 13286     1 
13285 13286     1 
13286 13292     1 
13286 13293     1 
13286 13294     1 
13287 13291     1 
13288 13291     1 
13289 13291     1 
13290 13295     1 
13290 13296     1 
13290 13302     1 
13291 13297     1 
13291 13303     1 
13291 13304     1 
13291 13305     1 
13292 13295     1 
13292 13296     1 
13292 13302     1 
13293 13295     1 
13293 13296     1 
13293 13302     1 
13294 13298     1 
13294 13299     1 
13294 13306     1 
13295 13297     1 
13295 13303     1 
13295 13304     1 
13295 13305     1 
13296 13300     1 
13296 13301     1 
13296 13303     1 
13296 13304     1 
13296 13305     1 
13296 13311     1 
13297 13302     1 
13297 13312     1 
13297 13313     1 
13297 13314     1 
13298 13300     1 
13298 13301     1 
13298 13311     1 
13299 13315     1 
13299 13316     1 
13299 13317     1 
13300 13312     1 
13300 13313     1 
13300 13314     1 
13301 13312     1 
13301 13313     1 
13301 13314     1 
13302 13307     1 
13302 13308     1 
13303 13306     1 
13304 13306     1 
13305 13309     1 
13305 13310     1 
13305 13358     1 
13306 13359     1 
13306 13360     1 
13306 13361     1 
13307 13309     1 
13307 13310     1 
13307 13358     1 
13308 13362     1 
13308 13363     1 
13308 13364     1 
13309 13359     1 
13309 13360     1 
13309 13361     1 
13310 13359     1 
13310 13360     1 
13310 13361     1 
13311 13318     1 
13311 13319     1 
13311 13320     1 
13312 13315     1 
13312 13316     1 
13312 13317     1 
13313 13315     1 
13313 13316     1 
13313 13317     1 
13314 13321     1 
13314 13322     1 
13314 13323     1 
13315 13318     1 
13315 13319     1 
13315 13320     1 
13316 13318     1 
13316 13319     1 
13316 13320     1 
13317 13324     1 
13317 13325     1 
13317 13326     1 
13318 13321     1 
13318 13322     1 
13318 13323     1 
13319 13321     1 
13319 13322     1 
13319 13323     1 
13320 13327     1 
13320 13328     1 
13320 13329     1 
13321 13324     1 
13321 13325     1 
13321 13326     1 
13322 13324     1 
13322 13325     1 
13322 13326     1 
13323 13330     1 
13323 13331     1 
13324 13327     1 
13324 13328     1 
13324 13329     1 
13325 13327     1 
13325 13328     1 
13325 13329     1 
13326 13332     1 
13326 13333     1 
13327 13330     1 
13327 13331     1 
13328 13330     1 
13328 13331     1 
13329 13334     1 
13329 13335     1 
13329 13336     1 
13330 13332     1 
13330 13333     1 
13331 13337     1 
13331 13338     1 
13331 13339     1 
13332 13334     1 
13332 13335     1 
13332 13336     1 
13333 13340     1 
13333 13341     1 
13333 13342     1 
13334 13337     1 
13334 13338     1 
13334 13339     1 
13335 13337     1 
13335 13338     1 
13335 13339     1 
13336 13343     1 
13336 13344     1 
13336 13345     1 
13337 13340     1 
13337 13341     1 
13337 13342     1 
13338 13340     1 
13338 13341     1 
13338 13342     1 
13339 13346     1 
13339 13347     1 
13339 13348     1 
13340 13343     1 
13340 13344     1 
13340 13345     1 
13341 13343     1 
13341 13344     1 
13341 13345     1 
13342 13349     1 
13342 13350     1 
13342 13351     1 
13343 13346     1 
13343 13347     1 
13343 13348     1 
13344 13346     1 
13344 13347     1 
13344 13348     1 
13345 13352     1 
13345 13353     1 
13345 13354     1 
13346 13349     1 
13346 13350     1 
13346 13351     1 
13347 13349     1 
13347 13350     1 
13347 13351     1 
13348 13355     1 
13348 13356     1 
13348 13357     1 
13349 13352     1 
13349 13353     1 
13349 13354     1 
13350 13352     1 
13350 13353     1 
13350 13354     1 
13352 13355     1 
13352 13356     1 
13352 13357     1 
13353 13355     1 
13353 13356     1 
13353 13357     1 
13358 13365     1 
13358 13366     1 
13358 13367     1 
13359 13362     1 
13359 13363     1 
13359 13364     1 
13360 13362     1 
13360 13363     1 
13360 13364     1 
13361 13368     1 
13361 13369     1 
13361 13370     1 
13362 13365     1 
13362 13366     1 
13362 13367     1 
13363 13365     1 
13363 13366     1 
13363 13367     1 
13364 13371     1 
13364 13372     1 
13364 13373     1 
13365 13368     1 
13365 13369     1 
13365 13370     1 
13366 13368     1 
13366 13369     1 
13366 13370     1 
13367 13374     1 
13367 13375     1 
13367 13376     1 
13368 13371     1 
13368 13372     1 
13368 13373     1 
13369 13371     1 
13369 13372     1 
13369 13373     1 
13370 13377     1 
13370 13378     1 
13370 13379     1 
13371 13374     1 
13371 13375     1 
13371 13376     1 
13372 13374     1 
13372 13375     1 
13372 13376     1 
13373 13380     1 
13373 13381     1 
13373 13382     1 
13374 13377     1 
13374 13378     1 
13374 13379     1 
13375 13377     1 
13375 13378     1 
13375 13379     1 
13376 13383     1 
13376 13384     1 
13376 13385     1 
13377 13380     1 
13377 13381     1 
13377 13382     1 
13378 13380     1 
13378 13381     1 
13378 13382     1 
13379 13386     1 
13379 13387     1 
13379 13388     1 
13380 13383     1 
13380 13384     1 
13380 13385     1 
13381 13383     1 
13381 13384     1 
13381 13385     1 
13382 13389     1 
13382 13390     1 
13382 13391     1 
13383 13386     1 
13383 13387     1 
13383 13388     1 
13384 13386     1 
13384 13387     1 
13384 13388     1 
13385 13392     1 
13385 13393     1 
13385 13394     1 
13386 13389     1 
13386 13390     1 
13386 13391     1 
13387 13389     1 
13387 13390     1 
13387 13391     1 
13388 13395     1 
13388 13396     1 
13388 13397     1 
13389 13392     1 
13389 13393     1 
13389 13394     1 
13390 13392     1 
13390 13393     1 
13390 13394     1 
13391 13398     1 
13391 13399     1 
13391 13400     1 
13392 13395     1 
13392 13396     1 
13392 13397     1 
13393 13395     1 
13393 13396     1 
13393 13397     1 
13395 13398     1 
13395 13399     1 
13395 13400     1 
13396 13398     1 
13396 13399     1 
13396 13400     1 
13401 13418     1 
13401 13419     1 
13401 13423     1 
13402 13406     1 
13402 13407     1 
13402 13408     1 
13402 13410     1 
13402 13411     1 
13402 13412     1 
13402 13414     1 
13402 13415     1 
13402 13416     1 
13402 13420     1 
13403 13405     1 
13403 13409     1 
13403 13413     1 
13403 13418     1 
13403 13419     1 
13403 13423     1 
13404 13405     1 
13404 13409     1 
13404 13413     1 
13404 13418     1 
13404 13419     1 
13404 13423     1 
13405 13410     1 
13405 13411     1 
13405 13412     1 
13405 13414     1 
13405 13415     1 
13405 13416     1 
13405 13417     1 
13406 13409     1 
13406 13413     1 
13407 13409     1 
13407 13413     1 
13408 13409     1 
13408 13413     1 
13409 13414     1 
13409 13415     1 
13409 13416     1 
13409 13417     1 
13410 13413     1 
13411 13413     1 
13412 13413     1 
13413 13417     1 
13417 13421     1 
13417 13422     1 
13417 13424     1 
13418 13420     1 
13419 13420     1 
13420 13426     1 
13420 13427     1 
13420 13428     1 
13421 13425     1 
13422 13425     1 
13423 13425     1 
13424 13429     1 
13424 13430     1 
13424 13436     1 
13425 13431     1 
13425 13437     1 
13425 13438     1 
13425 13439     1 
13426 13429     1 
13426 13430     1 
13426 13436     1 
13427 13429     1 
13427 13430     1 
13427 13436     1 
13428 13432     1 
13428 13433     1 
13428 13440     1 
13429 13431     1 
13429 13437     1 
13429 13438     1 
13429 13439     1 
13430 13434     1 
13430 13435     1 
13430 13437     1 
13430 13438     1 
13430 13439     1 
13430 13445     1 
13431 13436     1 
13431 13446     1 
13431 13447     1 
13431 13448     1 
13432 13434     1 
13432 13435     1 
13432 13445     1 
13433 13449     1 
13433 13450     1 
13433 13451     1 
13434 13446     1 
13434 13447     1 
13434 13448     1 
13435 13446     1 
13435 13447     1 
13435 13448     1 
13436 13441     1 
13436 13442     1 
13437 13440     1 
13438 13440     1 
13439 13443     1 
13439 13444     1 
13439 13492     1 
13440 13493     1 
13440 13494     1 
13440 13495     1 
13441 13443     1 
13441 13444     1 
13441 13492     1 
13442 13496     1 
13442 13497     1 
13442 13498     1 
13443 13493     1 
13443 13494     1 
13443 13495     1 
13444 13493     1 
13444 13494     1 
13444 13495     1 
13445 13452     1 
13445 13453     1 
13445 13454     1 
13446 13449     1 
13446 13450     1 
13446 13451     1 
13447 13449     1 
13447 13450     1 
13447 13451     1 
13448 13455     1 
13448 13456     1 
13448 13457     1 
13449 13452     1 
13449 13453     1 
13449 13454     1 
13450 13452     1 
13450 13453     1 
13450 13454     1 
13451 13458     1 
13451 13459     1 
13451 13460     1 
13452 13455     1 
13452 13456     1 
13452 13457     1 
13453 13455     1 
13453 13456     1 
13453 13457     1 
13454 13461     1 
13454 13462     1 
13454 13463     1 
13455 13458     1 
13455 13459     1 
13455 13460     1 
13456 13458     1 
13456 13459     1 
13456 13460     1 
13457 13464     1 
13457 13465     1 
13458 13461     1 
13458 13462     1 
13458 13463     1 
13459 13461     1 
13459 13462     1 
13459 13463     1 
13460 13466     1 
13460 13467     1 
13461 13464     1 
13461 13465     1 
13462 13464     1 
13462 13465     1 
13463 13468     1 
13463 13469     1 
13463 13470     1 
13464 13466     1 
13464 13467     1 
13465 13471     1 
13465 13472     1 
13465 13473     1 
13466 13468     1 
13466 13469     1 
13466 13470     1 
13467 13474     1 
13467 13475     1 
13467 13476     1 
13468 13471     1 
13468 13472     1 
13468 13473     1 
13469 13471     1 
13469 13472     1 
13469 13473     1 
13470 13477     1 
13470 13478     1 
13470 13479     1 
13471 13474     1 
13471 13475     1 
13471 13476     1 
13472 13474     1 
13472 13475     1 
13472 13476     1 
13473 13480     1 
13473 13481     1 
13473 13482     1 
13474 13477     1 
13474 13478     1 
13474 13479     1 
13475 13477     1 
13475 13478     1 
13475 13479     1 
13476 13483     1 
13476 13484     1 
13476 13485     1 
13477 13480     1 
13477 13481     1 
13477 13482     1 
13478 13480     1 
13478 13481     1 
13478 13482     1 
13479 13486     1 
13479 13487     1 
13479 13488     1 
13480 13483     1 
13480 13484     1 
13480 13485     1 
13481 13483     1 
13481 13484     1 
13481 13485     1 
13482 13489     1 
13482 13490     1 
13482 13491     1 
13483 13486     1 
13483 13487     1 
13483 13488     1 
13484 13486     1 
13484 13487     1 
13484 13488     1 
13486 13489     1 
13486 13490     1 
13486 13491     1 
13487 13489     1 
13487 13490     1 
13487 13491     1 
13492 13499     1 
13492 13500     1 
13492 13501     1 
13493 13496     1 
13493 13497     1 
13493 13498     1 
13494 13496     1 
13494 13497     1 
13494 13498     1 
13495 13502     1 
13495 13503     1 
13495 13504     1 
13496 13499     1 
13496 13500     1 
13496 13501     1 
13497 13499     1 
13497 13500     1 
13497 13501     1 
13498 13505     1 
13498 13506     1 
13498 13507     1 
13499 13502     1 
13499 13503     1 
13499 13504     1 
13500 13502     1 
13500 13503     1 
13500 13504     1 
13501 13508     1 
13501 13509     1 
13501 13510     1 
13502 13505     1 
13502 13506     1 
13502 13507     1 
13503 13505     1 
13503 13506     1 
13503 13507     1 
13504 13511     1 
13504 13512     1 
13504 13513     1 
13505 13508     1 
13505 13509     1 
13505 13510     1 
13506 13508     1 
13506 13509     1 
13506 13510     1 
13507 13514     1 
13507 13515     1 
13507 13516     1 
13508 13511     1 
13508 13512     1 
13508 13513     1 
13509 13511     1 
13509 13512     1 
13509 13513     1 
13510 13517     1 
13510 13518     1 
13510 13519     1 
13511 13514     1 
13511 13515     1 
13511 13516     1 
13512 13514     1 
13512 13515     1 
13512 13516     1 
13513 13520     1 
13513 13521     1 
13513 13522     1 
13514 13517     1 
13514 13518     1 
13514 13519     1 
13515 13517     1 
13515 13518     1 
13515 13519     1 
13516 13523     1 
13516 13524     1 
13516 13525     1 
13517 13520     1 
13517 13521     1 
13517 13522     1 
13518 13520     1 
13518 13521     1 
13518 13522     1 
13519 13526     1 
13519 13527     1 
13519 13528     1 
13520 13523     1 
13520 13524     1 
13520 13525     1 
13521 13523     1 
13521 13524     1 
13521 13525     1 
13522 13529     1 
13522 13530     1 
13522 13531     1 
13523 13526     1 
13523 13527     1 
13523 13528     1 
13524 13526     1 
13524 13527     1 
13524 13528     1 
13525 13532     1 
13525 13533     1 
13525 13534     1 
13526 13529     1 
13526 13530     1 
13526 13531     1 
13527 13529     1 
13527 13530     1 
13527 13531     1 
13529 13532     1 
13529 13533     1 
13529 13534     1 
13530 13532     1 
13530 13533     1 
13530 13534     1 
13535 13552     1 
13535 13553     1 
13535 13557     1 
13536 13540     1 
13536 13541     1 
13536 13542     1 
13536 13544     1 
13536 13545     1 
13536 13546     1 
13536 13548     1 
13536 13549     1 
13536 13550     1 
13536 13554     1 
13537 13539     1 
13537 13543     1 
13537 13547     1 
13537 13552     1 
13537 13553     1 
13537 13557     1 
13538 13539     1 
13538 13543     1 
13538 13547     1 
13538 13552     1 
13538 13553     1 
13538 13557     1 
13539 13544     1 
13539 13545     1 
13539 13546     1 
13539 13548     1 
13539 13549     1 
13539 13550     1 
13539 13551     1 
13540 13543     1 
13540 13547     1 
13541 13543     1 
13541 13547     1 
13542 13543     1 
13542 13547     1 
13543 13548     1 
13543 13549     1 
13543 13550     1 
13543 13551     1 
13544 13547     1 
13545 13547     1 
13546 13547     1 
13547 13551     1 
13551 13555     1 
13551 13556     1 
13551 13558     1 
13552 13554     1 
13553 13554     1 
13554 13560     1 
13554 13561     1 
13554 13562     1 
13555 13559     1 
13556 13559     1 
13557 13559     1 
13558 13563     1 
13558 13564     1 
13558 13570     1 
13559 13565     1 
13559 13571     1 
13559 13572     1 
13559 13573     1 
13560 13563     1 
13560 13564     1 
13560 13570     1 
13561 13563     1 
13561 13564     1 
13561 13570     1 
13562 13566     1 
13562 13567     1 
13562 13574     1 
13563 13565     1 
13563 13571     1 
13563 13572     1 
13563 13573     1 
13564 13568     1 
13564 13569     1 
13564 13571     1 
13564 13572     1 
13564 13573     1 
13564 13579     1 
13565 13570     1 
13565 13580     1 
13565 13581     1 
13565 13582     1 
13566 13568     1 
13566 13569     1 
13566 13579     1 
13567 13583     1 
13567 13584     1 
13567 13585     1 
13568 13580     1 
13568 13581     1 
13568 13582     1 
13569 13580     1 
13569 13581     1 
13569 13582     1 
13570 13575     1 
13570 13576     1 
13571 13574     1 
13572 13574     1 
13573 13577     1 
13573 13578     1 
13573 13626     1 
13574 13627     1 
13574 13628     1 
13574 13629     1 
13575 13577     1 
13575 13578     1 
13575 13626     1 
13576 13630     1 
13576 13631     1 
13576 13632     1 
13577 13627     1 
13577 13628     1 
13577 13629     1 
13578 13627     1 
13578 13628     1 
13578 13629     1 
13579 13586     1 
13579 13587     1 
13579 13588     1 
13580 13583     1 
13580 13584     1 
13580 13585     1 
13581 13583     1 
13581 13584     1 
13581 13585     1 
13582 13589     1 
13582 13590     1 
13582 13591     1 
13583 13586     1 
13583 13587     1 
13583 13588     1 
13584 13586     1 
13584 13587     1 
13584 13588     1 
13585 13592     1 
13585 13593     1 
13585 13594     1 
13586 13589     1 
13586 13590     1 
13586 13591     1 
13587 13589     1 
13587 13590     1 
13587 13591     1 
13588 13595     1 
13588 13596     1 
13588 13597     1 
13589 13592     1 
13589 13593     1 
13589 13594     1 
13590 13592     1 
13590 13593     1 
13590 13594     1 
13591 13598     1 
13591 13599     1 
13592 13595     1 
13592 13596     1 
13592 13597     1 
13593 13595     1 
13593 13596     1 
13593 13597     1 
13594 13600     1 
13594 13601     1 
13595 13598     1 
13595 13599     1 
13596 13598     1 
13596 13599     1 
13597 13602     1 
13597 13603     1 
13597 13604     1 
13598 13600     1 
13598 13601     1 
13599 13605     1 
13599 13606     1 
13599 13607     1 
13600 13602     1 
13600 13603     1 
13600 13604     1 
13601 13608     1 
13601 13609     1 
13601 13610     1 
13602 13605     1 
13602 13606     1 
13602 13607     1 
13603 13605     1 
13603 13606     1 
13603 13607     1 
13604 13611     1 
13604 13612     1 
13604 13613     1 
13605 13608     1 
13605 13609     1 
13605 13610     1 
13606 13608     1 
13606 13609     1 
13606 13610     1 
13607 13614     1 
13607 13615     1 
13607 13616     1 
13608 13611     1 
13608 13612     1 
13608 13613     1 
13609 13611     1 
13609 13612     1 
13609 13613     1 
13610 13617     1 
13610 13618     1 
13610 13619     1 
13611 13614     1 
13611 13615     1 
13611 13616     1 
13612 13614     1 
13612 13615     1 
13612 13616     1 
13613 13620     1 
13613 13621     1 
13613 13622     1 
13614 13617     1 
13614 13618     1 
13614 13619     1 
13615 13617     1 
13615 13618     1 
13615 13619     1 
13616 13623     1 
13616 13624     1 
13616 13625     1 
13617 13620     1 
13617 13621     1 
13617 13622     1 
13618 13620     1 
13618 13621     1 
13618 13622     1 
13620 13623     1 
13620 13624     1 
13620 13625     1 
13621 13623     1 
13621 13624     1 
13621 13625     1 
13626 13633     1 
13626 13634     1 
13626 13635     1 
13627 13630     1 
13627 13631     1 
13627 13632     1 
13628 13630     1 
13628 13631     1 
13628 13632     1 
13629 13636     1 
13629 13637     1 
13629 13638     1 
13630 13633     1 
13630 13634     1 
13630 13635     1 
13631 13633     1 
13631 13634     1 
13631 13635     1 
13632 13639     1 
13632 13640     1 
13632 13641     1 
13633 13636     1 
13633 13637     1 
13633 13638     1 
13634 13636     1 
13634 13637     1 
13634 13638     1 
13635 13642     1 
13635 13643     1 
13635 13644     1 
13636 13639     1 
13636 13640     1 
13636 13641     1 
13637 13639     1 
13637 13640     1 
13637 13641     1 
13638 13645     1 
13638 13646     1 
13638 13647     1 
13639 13642     1 
13639 13643     1 
13639 13644     1 
13640 13642     1 
13640 13643     1 
13640 13644     1 
13641 13648     1 
13641 13649     1 
13641 13650     1 
13642 13645     1 
13642 13646     1 
13642 13647     1 
13643 13645     1 
13643 13646     1 
13643 13647     1 
13644 13651     1 
13644 13652     1 
13644 13653     1 
13645 13648     1 
13645 13649     1 
13645 13650     1 
13646 13648     1 
13646 13649     1 
13646 13650     1 
13647 13654     1 
13647 13655     1 
13647 13656     1 
13648 13651     1 
13648 13652     1 
13648 13653     1 
13649 13651     1 
13649 13652     1 
13649 13653     1 
13650 13657     1 
13650 13658     1 
13650 13659     1 
13651 13654     1 
13651 13655     1 
13651 13656     1 
13652 13654     1 
13652 13655     1 
13652 13656     1 
13653 13660     1 
13653 13661     1 
13653 13662     1 
13654 13657     1 
13654 13658     1 
13654 13659     1 
13655 13657     1 
13655 13658     1 
13655 13659     1 
13656 13663     1 
13656 13664     1 
13656 13665     1 
13657 13660     1 
13657 13661     1 
13657 13662     1 
13658 13660     1 
13658 13661     1 
13658 13662     1 
13659 13666     1 
13659 13667     1 
13659 13668     1 
13660 13663     1 
13660 13664     1 
13660 13665     1 
13661 13663     1 
13661 13664     1 
13661 13665     1 
13663 13666     1 
13663 13667     1 
13663 13668     1 
13664 13666     1 
13664 13667     1 
13664 13668     1 
13669 13686     1 
13669 13687     1 
13669 13691     1 
13670 13674     1 
13670 13675     1 
13670 13676     1 
13670 13678     1 
13670 13679     1 
13670 13680     1 
13670 13682     1 
13670 13683     1 
13670 13684     1 
13670 13688     1 
13671 13673     1 
13671 13677     1 
13671 13681     1 
13671 13686     1 
13671 13687     1 
13671 13691     1 
13672 13673     1 
13672 13677     1 
13672 13681     1 
13672 13686     1 
13672 13687     1 
13672 13691     1 
13673 13678     1 
13673 13679     1 
13673 13680     1 
13673 13682     1 
13673 13683     1 
13673 13684     1 
13673 13685     1 
13674 13677     1 
13674 13681     1 
13675 13677     1 
13675 13681     1 
13676 13677     1 
13676 13681     1 
13677 13682     1 
13677 13683     1 
13677 13684     1 
13677 13685     1 
13678 13681     1 
13679 13681     1 
13680 13681     1 
13681 13685     1 
13685 13689     1 
13685 13690     1 
13685 13692     1 
13686 13688     1 
13687 13688     1 
13688 13694     1 
13688 13695     1 
13688 13696     1 
13689 13693     1 
13690 13693     1 
13691 13693     1 
13692 13697     1 
13692 13698     1 
13692 13704     1 
13693 13699     1 
13693 13705     1 
13693 13706     1 
13693 13707     1 
13694 13697     1 
13694 13698     1 
13694 13704     1 
13695 13697     1 
13695 13698     1 
13695 13704     1 
13696 13700     1 
13696 13701     1 
13696 13708     1 
13697 13699     1 
13697 13705     1 
13697 13706     1 
13697 13707     1 
13698 13702     1 
13698 13703     1 
13698 13705     1 
13698 13706     1 
13698 13707     1 
13698 13713     1 
13699 13704     1 
13699 13714     1 
13699 13715     1 
13699 13716     1 
13700 13702     1 
13700 13703     1 
13700 13713     1 
13701 13717     1 
13701 13718     1 
13701 13719     1 
13702 13714     1 
13702 13715     1 
13702 13716     1 
13703 13714     1 
13703 13715     1 
13703 13716     1 
13704 13709     1 
13704 13710     1 
13705 13708     1 
13706 13708     1 
13707 13711     1 
13707 13712     1 
13707 13760     1 
13708 13761     1 
13708 13762     1 
13708 13763     1 
13709 13711     1 
13709 13712     1 
13709 13760     1 
13710 13764     1 
13710 13765     1 
13710 13766     1 
13711 13761     1 
13711 13762     1 
13711 13763     1 
13712 13761     1 
13712 13762     1 
13712 13763     1 
13713 13720     1 
13713 13721     1 
13713 13722     1 
13714 13717     1 
13714 13718     1 
13714 13719     1 
13715 13717     1 
13715 13718     1 
13715 13719     1 
13716 13723     1 
13716 13724     1 
13716 13725     1 
13717 13720     1 
13717 13721     1 
13717 13722     1 
13718 13720     1 
13718 13721     1 
13718 13722     1 
13719 13726     1 
13719 13727     1 
13719 13728     1 
13720 13723     1 
13720 13724     1 
13720 13725     1 
13721 13723     1 
13721 13724     1 
13721 13725     1 
13722 13729     1 
13722 13730     1 
13722 13731     1 
13723 13726     1 
13723 13727     1 
13723 13728     1 
13724 13726     1 
13724 13727     1 
13724 13728     1 
13725 13732     1 
13725 13733     1 
13726 13729     1 
13726 13730     1 
13726 13731     1 
13727 13729     1 
13727 13730     1 
13727 13731     1 
13728 13734     1 
13728 13735     1 
13729 13732     1 
13729 13733     1 
13730 13732     1 
13730 13733     1 
13731 13736     1 
13731 13737     1 
13731 13738     1 
13732 13734     1 
13732 13735     1 
13733 13739     1 
13733 13740     1 
13733 13741     1 
13734 13736     1 
13734 13737     1 
13734 13738     1 
13735 13742     1 
13735 13743     1 
13735 13744     1 
13736 13739     1 
13736 13740     1 
13736 13741     1 
13737 13739     1 
13737 13740     1 
13737 13741     1 
13738 13745     1 
13738 13746     1 
13738 13747     1 
13739 13742     1 
13739 13743     1 
13739 13744     1 
13740 13742     1 
13740 13743     1 
13740 13744     1 
13741 13748     1 
13741 13749     1 
13741 13750     1 
13742 13745     1 
13742 13746     1 
13742 13747     1 
13743 13745     1 
13743 13746     1 
13743 13747     1 
13744 13751     1 
13744 13752     1 
13744 13753     1 
13745 13748     1 
13745 13749     1 
13745 13750     1 
13746 13748     1 
13746 13749     1 
13746 13750     1 
13747 13754     1 
13747 13755     1 
13747 13756     1 
13748 13751     1 
13748 13752     1 
13748 13753     1 
13749 13751     1 
13749 13752     1 
13749 13753     1 
13750 13757     1 
13750 13758     1 
13750 13759     1 
13751 13754     1 
13751 13755     1 
13751 13756     1 
13752 13754     1 
13752 13755     1 
13752 13756     1 
13754 13757     1 
13754 13758     1 
13754 13759     1 
13755 13757     1 
13755 13758     1 
13755 13759     1 
13760 13767     1 
13760 13768     1 
13760 13769     1 
13761 13764     1 
13761 13765     1 
13761 13766     1 
13762 13764     1 
13762 13765     1 
13762 13766     1 
13763 13770     1 
13763 13771     1 
13763 13772     1 
13764 13767     1 
13764 13768     1 
13764 13769     1 
13765 13767     1 
13765 13768     1 
13765 13769     1 
13766 13773     1 
13766 13774     1 
13766 13775     1 
13767 13770     1 
13767 13771     1 
13767 13772     1 
13768 13770     1 
13768 13771     1 
13768 13772     1 
13769 13776     1 
13769 13777     1 
13769 13778     1 
13770 13773     1 
13770 13774     1 
13770 13775     1 
13771 13773     1 
13771 13774     1 
13771 13775     1 
13772 13779     1 
13772 13780     1 
13772 13781     1 
13773 13776     1 
13773 13777     1 
13773 13778     1 
13774 13776     1 
13774 13777     1 
13774 13778     1 
13775 13782     1 
13775 13783     1 
13775 13784     1 
13776 13779     1 
13776 13780     1 
13776 13781     1 
13777 13779     1 
13777 13780     1 
13777 13781     1 
13778 13785     1 
13778 13786     1 
13778 13787     1 
13779 13782     1 
13779 13783     1 
13779 13784     1 
13780 13782     1 
13780 13783     1 
13780 13784     1 
13781 13788     1 
13781 13789     1 
13781 13790     1 
13782 13785     1 
13782 13786     1 
13782 13787     1 
13783 13785     1 
13783 13786     1 
13783 13787     1 
13784 13791     1 
13784 13792     1 
13784 13793     1 
13785 13788     1 
13785 13789     1 
13785 13790     1 
13786 13788     1 
13786 13789     1 
13786 13790     1 
13787 13794     1 
13787 13795     1 
13787 13796     1 
13788 13791     1 
13788 13792     1 
13788 13793     1 
13789 13791     1 
13789 13792     1 
13789 13793     1 
13790 13797     1 
13790 13798     1 
13790 13799     1 
13791 13794     1 
13791 13795     1 
13791 13796     1 
13792 13794     1 
13792 13795     1 
13792 13796     1 
13793 13800     1 
13793 13801     1 
13793 13802     1 
13794 13797     1 
13794 13798     1 
13794 13799     1 
13795 13797     1 
13795 13798     1 
13795 13799     1 
13797 13800     1 
13797 13801     1 
13797 13802     1 
13798 13800     1 
13798 13801     1 
13798 13802     1 
13803 13820     1 
13803 13821     1 
13803 13825     1 
13804 13808     1 
13804 13809     1 
13804 13810     1 
13804 13812     1 
13804 13813     1 
13804 13814     1 
13804 13816     1 
13804 13817     1 
13804 13818     1 
13804 13822     1 
13805 13807     1 
13805 13811     1 
13805 13815     1 
13805 13820     1 
13805 13821     1 
13805 13825     1 
13806 13807     1 
13806 13811     1 
13806 13815     1 
13806 13820     1 
13806 13821     1 
13806 13825     1 
13807 13812     1 
13807 13813     1 
13807 13814     1 
13807 13816     1 
13807 13817     1 
13807 13818     1 
13807 13819     1 
13808 13811     1 
13808 13815     1 
13809 13811     1 
13809 13815     1 
13810 13811     1 
13810 13815     1 
13811 13816     1 
13811 13817     1 
13811 13818     1 
13811 13819     1 
13812 13815     1 
13813 13815     1 
13814 13815     1 
13815 13819     1 
13819 13823     1 
13819 13824     1 
13819 13826     1 
13820 13822     1 
13821 13822     1 
13822 13828     1 
13822 13829     1 
13822 13830     1 
13823 13827     1 
13824 13827     1 
13825 13827     1 
13826 13831     1 
13826 13832     1 
13826 13838     1 
13827 13833     1 
13827 13839     1 
13827 13840     1 
13827 13841     1 
13828 13831     1 
13828 13832     1 
13828 13838     1 
13829 13831     1 
13829 13832     1 
13829 13838     1 
13830 13834     1 
13830 13835     1 
13830 13842     1 
13831 13833     1 
13831 13839     1 
13831 13840     1 
13831 13841     1 
13832 13836     1 
13832 13837     1 
13832 13839     1 
13832 13840     1 
13832 13841     1 
13832 13847     1 
13833 13838     1 
13833 13848     1 
13833 13849     1 
13833 13850     1 
13834 13836     1 
13834 13837     1 
13834 13847     1 
13835 13851     1 
13835 13852     1 
13835 13853     1 
13836 13848     1 
13836 13849     1 
13836 13850     1 
13837 13848     1 
13837 13849     1 
13837 13850     1 
13838 13843     1 
13838 13844     1 
13839 13842     1 
13840 13842     1 
13841 13845     1 
13841 13846     1 
13841 13894     1 
13842 13895     1 
13842 13896     1 
13842 13897     1 
13843 13845     1 
13843 13846     1 
13843 13894     1 
13844 13898     1 
13844 13899     1 
13844 13900     1 
13845 13895     1 
13845 13896     1 
13845 13897     1 
13846 13895     1 
13846 13896     1 
13846 13897     1 
13847 13854     1 
13847 13855     1 
13847 13856     1 
13848 13851     1 
13848 13852     1 
13848 13853     1 
13849 13851     1 
13849 13852     1 
13849 13853     1 
13850 13857     1 
13850 13858     1 
13850 13859     1 
13851 13854     1 
13851 13855     1 
13851 13856     1 
13852 13854     1 
13852 13855     1 
13852 13856     1 
13853 13860     1 
13853 13861     1 
13853 13862     1 
13854 13857     1 
13854 13858     1 
13854 13859     1 
13855 13857     1 
13855 13858     1 
13855 13859     1 
13856 13863     1 
13856 13864     1 
13856 13865     1 
13857 13860     1 
13857 13861     1 
13857 13862     1 
13858 13860     1 
13858 13861     1 
13858 13862     1 
13859 13866     1 
13859 13867     1 
13860 13863     1 
13860 13864     1 
13860 13865     1 
13861 13863     1 
13861 13864     1 
13861 13865     1 
13862 13868     1 
13862 13869     1 
13863 13866     1 
13863 13867     1 
13864 13866     1 
13864 13867     1 
13865 13870     1 
13865 13871     1 
13865 13872     1 
13866 13868     1 
13866 13869     1 
13867 13873     1 
13867 13874     1 
13867 13875     1 
13868 13870     1 
13868 13871     1 
13868 13872     1 
13869 13876     1 
13869 13877     1 
13869 13878     1 
13870 13873     1 
13870 13874     1 
13870 13875     1 
13871 13873     1 
13871 13874     1 
13871 13875     1 
13872 13879     1 
13872 13880     1 
13872 13881     1 
13873 13876     1 
13873 13877     1 
13873 13878     1 
13874 13876     1 
13874 13877     1 
13874 13878     1 
13875 13882     1 
13875 13883     1 
13875 13884     1 
13876 13879     1 
13876 13880     1 
13876 13881     1 
13877 13879     1 
13877 13880     1 
13877 13881     1 
13878 13885     1 
13878 13886     1 
13878 13887     1 
13879 13882     1 
13879 13883     1 
13879 13884     1 
13880 13882     1 
13880 13883     1 
13880 13884     1 
13881 13888     1 
13881 13889     1 
13881 13890     1 
13882 13885     1 
13882 13886     1 
13882 13887     1 
13883 13885     1 
13883 13886     1 
13883 13887     1 
13884 13891     1 
13884 13892     1 
13884 13893     1 
13885 13888     1 
13885 13889     1 
13885 13890     1 
13886 13888     1 
13886 13889     1 
13886 13890     1 
13888 13891     1 
13888 13892     1 
13888 13893     1 
13889 13891     1 
13889 13892     1 
13889 13893     1 
13894 13901     1 
13894 13902     1 
13894 13903     1 
13895 13898     1 
13895 13899     1 
13895 13900     1 
13896 13898     1 
13896 13899     1 
13896 13900     1 
13897 13904     1 
13897 13905     1 
13897 13906     1 
13898 13901     1 
13898 13902     1 
13898 13903     1 
13899 13901     1 
13899 13902     1 
13899 13903     1 
13900 13907     1 
13900 13908     1 
13900 13909     1 
13901 13904     1 
13901 13905     1 
13901 13906     1 
13902 13904     1 
13902 13905     1 
13902 13906     1 
13903 13910     1 
13903 13911     1 
13903 13912     1 
13904 13907     1 
13904 13908     1 
13904 13909     1 
13905 13907     1 
13905 13908     1 
13905 13909     1 
13906 13913     1 
13906 13914     1 
13906 13915     1 
13907 13910     1 
13907 13911     1 
13907 13912     1 
13908 13910     1 
13908 13911     1 
13908 13912     1 
13909 13916     1 
13909 13917     1 
13909 13918     1 
13910 13913     1 
13910 13914     1 
13910 13915     1 
13911 13913     1 
13911 13914     1 
13911 13915     1 
13912 13919     1 
13912 13920     1 
13912 13921     1 
13913 13916     1 
13913 13917     1 
13913 13918     1 
13914 13916     1 
13914 13917     1 
13914 13918     1 
13915 13922     1 
13915 13923     1 
13915 13924     1 
13916 13919     1 
13916 13920     1 
13916 13921     1 
13917 13919     1 
13917 13920     1 
13917 13921     1 
13918 13925     1 
13918 13926     1 
13918 13927     1 
13919 13922     1 
13919 13923     1 
13919 13924     1 
13920 13922     1 
13920 13923     1 
13920 13924     1 
13921 13928     1 
13921 13929     1 
13921 13930     1 
13922 13925     1 
13922 13926     1 
13922 13927     1 
13923 13925     1 
13923 13926     1 
13923 13927     1 
13924 13931     1 
13924 13932     1 
13924 13933     1 
13925 13928     1 
13925 13929     1 
13925 13930     1 
13926 13928     1 
13926 13929     1 
13926 13930     1 
13927 13934     1 
13927 13935     1 
13927 13936     1 
13928 13931     1 
13928 13932     1 
13928 13933     1 
13929 13931     1 
13929 13932     1 
13929 13933     1 
13931 13934     1 
13931 13935     1 
13931 13936     1 
13932 13934     1 
13932 13935     1 
13932 13936     1 
13937 13954     1 
13937 13955     1 
13937 13959     1 
13938 13942     1 
13938 13943     1 
13938 13944     1 
13938 13946     1 
13938 13947     1 
13938 13948     1 
13938 13950     1 
13938 13951     1 
13938 13952     1 
13938 13956     1 
13939 13941     1 
13939 13945     1 
13939 13949     1 
13939 13954     1 
13939 13955     1 
13939 13959     1 
13940 13941     1 
13940 13945     1 
13940 13949     1 
13940 13954     1 
13940 13955     1 
13940 13959     1 
13941 13946     1 
13941 13947     1 
13941 13948     1 
13941 13950     1 
13941 13951     1 
13941 13952     1 
13941 13953     1 
13942 13945     1 
13942 13949     1 
13943 13945     1 
13943 13949     1 
13944 13945     1 
13944 13949     1 
13945 13950     1 
13945 13951     1 
13945 13952     1 
13945 13953     1 
13946 13949     1 
13947 13949     1 
13948 13949     1 
13949 13953     1 
13953 13957     1 
13953 13958     1 
13953 13960     1 
13954 13956     1 
13955 13956     1 
13956 13962     1 
13956 13963     1 
13956 13964     1 
13957 13961     1 
13958 13961     1 
13959 13961     1 
13960 13965     1 
13960 13966     1 
13960 13972     1 
13961 13967     1 
13961 13973     1 
13961 13974     1 
13961 13975     1 
13962 13965     1 
13962 13966     1 
13962 13972     1 
13963 13965     1 
13963 13966     1 
13963 13972     1 
13964 13968     1 
13964 13969     1 
13964 13976     1 
13965 13967     1 
13965 13973     1 
13965 13974     1 
13965 13975     1 
13966 13970     1 
13966 13971     1 
13966 13973     1 
13966 13974     1 
13966 13975     1 
13966 13981     1 
13967 13972     1 
13967 13982     1 
13967 13983     1 
13967 13984     1 
13968 13970     1 
13968 13971     1 
13968 13981     1 
13969 13985     1 
13969 13986     1 
13969 13987     1 
13970 13982     1 
13970 13983     1 
13970 13984     1 
13971 13982     1 
13971 13983     1 
13971 13984     1 
13972 13977     1 
13972 13978     1 
13973 13976     1 
13974 13976     1 
13975 13979     1 
13975 13980     1 
13975 14028     1 
13976 14029     1 
13976 14030     1 
13976 14031     1 
13977 13979     1 
13977 13980     1 
13977 14028     1 
13978 14032     1 
13978 14033     1 
13978 14034     1 
13979 14029     1 
13979 14030     1 
13979 14031     1 
13980 14029     1 
13980 14030     1 
13980 14031     1 
13981 13988     1 
13981 13989     1 
13981 13990     1 
13982 13985     1 
13982 13986     1 
13982 13987     1 
13983 13985     1 
13983 13986     1 
13983 13987     1 
13984 13991     1 
13984 13992     1 
13984 13993     1 
13985 13988     1 
13985 13989     1 
13985 13990     1 
13986 13988     1 
13986 13989     1 
13986 13990     1 
13987 13994     1 
13987 13995     1 
13987 13996     1 
13988 13991     1 
13988 13992     1 
13988 13993     1 
13989 13991     1 
13989 13992     1 
13989 13993     1 
13990 13997     1 
13990 13998     1 
13990 13999     1 
13991 13994     1 
13991 13995     1 
13991 13996     1 
13992 13994     1 
13992 13995     1 
13992 13996     1 
13993 14000     1 
13993 14001     1 
13994 13997     1 
13994 13998     1 
13994 13999     1 
13995 13997     1 
13995 13998     1 
13995 13999     1 
13996 14002     1 
13996 14003     1 
13997 14000     1 
13997 14001     1 
13998 14000     1 
13998 14001     1 
13999 14004     1 
13999 14005     1 
13999 14006     1 
14000 14002     1 
14000 14003     1 
14001 14007     1 
14001 14008     1 
14001 14009     1 
14002 14004     1 
14002 14005     1 
14002 14006     1 
14003 14010     1 
14003 14011     1 
14003 14012     1 
14004 14007     1 
14004 14008     1 
14004 14009     1 
14005 14007     1 
14005 14008     1 
14005 14009     1 
14006 14013     1 
14006 14014     1 
14006 14015     1 
14007 14010     1 
14007 14011     1 
14007 14012     1 
14008 14010     1 
14008 14011     1 
14008 14012     1 
14009 14016     1 
14009 14017     1 
14009 14018     1 
14010 14013     1 
14010 14014     1 
14010 14015     1 
14011 14013     1 
14011 14014     1 
14011 14015     1 
14012 14019     1 
14012 14020     1 
14012 14021     1 
14013 14016     1 
14013 14017     1 
14013 14018     1 
14014 14016     1 
14014 14017     1 
14014 14018     1 
14015 14022     1 
14015 14023     1 
14015 14024     1 
14016 14019     1 
14016 14020     1 
14016 14021     1 
14017 14019     1 
14017 14020     1 
14017 14021     1 
14018 14025     1 
14018 14026     1 
14018 14027     1 
14019 14022     1 
14019 14023     1 
14019 14024     1 
14020 14022     1 
14020 14023     1 
14020 14024     1 
14022 14025     1 
14022 14026     1 
14022 14027     1 
14023 14025     1 
14023 14026     1 
14023 14027     1 
14028 14035     1 
14028 14036     1 
14028 14037     1 
14029 14032     1 
14029 14033     1 
14029 14034     1 
14030 14032     1 
14030 14033     1 
14030 14034     1 
14031 14038     1 
14031 14039     1 
14031 14040     1 
14032 14035     1 
14032 14036     1 
14032 14037     1 
14033 14035     1 
14033 14036     1 
14033 14037     1 
14034 14041     1 
14034 14042     1 
14034 14043     1 
14035 14038     1 
14035 14039     1 
14035 14040     1 
14036 14038     1 
14036 14039     1 
14036 14040     1 
14037 14044     1 
14037 14045     1 
14037 14046     1 
14038 14041     1 
14038 14042     1 
14038 14043     1 
14039 14041     1 
14039 14042     1 
14039 14043     1 
14040 14047     1 
14040 14048     1 
14040 14049     1 
14041 14044     1 
14041 14045     1 
14041 14046     1 
14042 14044     1 
14042 14045     1 
14042 14046     1 
14043 14050     1 
14043 14051     1 
14043 14052     1 
14044 14047     1 
14044 14048     1 
14044 14049     1 
14045 14047     1 
14045 14048     1 
14045 14049     1 
14046 14053     1 
14046 14054     1 
14046 14055     1 
14047 14050     1 
14047 14051     1 
14047 14052     1 
14048 14050     1 
14048 14051     1 
14048 14052     1 
14049 14056     1 
14049 14057     1 
14049 14058     1 
14050 14053     1 
14050 14054     1 
14050 14055     1 
14051 14053     1 
14051 14054     1 
14051 14055     1 
14052 14059     1 
14052 14060     1 
14052 14061     1 
14053 14056     1 
14053 14057     1 
14053 14058     1 
14054 14056     1 
14054 14057     1 
14054 14058     1 
14055 14062     1 
14055 14063     1 
14055 14064     1 
14056 14059     1 
14056 14060     1 
14056 14061     1 
14057 14059     1 
14057 14060     1 
14057 14061     1 
14058 14065     1 
14058 14066     1 
14058 14067     1 
14059 14062     1 
14059 14063     1 
14059 14064     1 
14060 14062     1 
14060 14063     1 
14060 14064     1 
14061 14068     1 
14061 14069     1 
14061 14070     1 
14062 14065     1 
14062 14066     1 
14062 14067     1 
14063 14065     1 
14063 14066     1 
14063 14067     1 
14065 14068     1 
14065 14069     1 
14065 14070     1 
14066 14068     1 
14066 14069     1 
14066 14070     1 
14071 14088     1 
14071 14089     1 
14071 14093     1 
14072 14076     1 
14072 14077     1 
14072 14078     1 
14072 14080     1 
14072 14081     1 
14072 14082     1 
14072 14084     1 
14072 14085     1 
14072 14086     1 
14072 14090     1 
14073 14075     1 
14073 14079     1 
14073 14083     1 
14073 14088     1 
14073 14089     1 
14073 14093     1 
14074 14075     1 
14074 14079     1 
14074 14083     1 
14074 14088     1 
14074 14089     1 
14074 14093     1 
14075 14080     1 
14075 14081     1 
14075 14082     1 
14075 14084     1 
14075 14085     1 
14075 14086     1 
14075 14087     1 
14076 14079     1 
14076 14083     1 
14077 14079     1 
14077 14083     1 
14078 14079     1 
14078 14083     1 
14079 14084     1 
14079 14085     1 
14079 14086     1 
14079 14087     1 
14080 14083     1 
14081 14083     1 
14082 14083     1 
14083 14087     1 
14087 14091     1 
14087 14092     1 
14087 14094     1 
14088 14090     1 
14089 14090     1 
14090 14096     1 
14090 14097     1 
14090 14098     1 
14091 14095     1 
14092 14095     1 
14093 14095     1 
14094 14099     1 
14094 14100     1 
14094 14106     1 
14095 14101     1 
14095 14107     1 
14095 14108     1 
14095 14109     1 
14096 14099     1 
14096 14100     1 
14096 14106     1 
14097 14099     1 
14097 14100     1 
14097 14106     1 
14098 14102     1 
14098 14103     1 
14098 14110     1 
14099 14101     1 
14099 14107     1 
14099 14108     1 
14099 14109     1 
14100 14104     1 
14100 14105     1 
14100 14107     1 
14100 14108     1 
14100 14109     1 
14100 14115     1 
14101 14106     1 
14101 14116     1 
14101 14117     1 
14101 14118     1 
14102 14104     1 
14102 14105     1 
14102 14115     1 
14103 14119     1 
14103 14120     1 
14103 14121     1 
14104 14116     1 
14104 14117     1 
14104 14118     1 
14105 14116     1 
14105 14117     1 
14105 14118     1 
14106 14111     1 
14106 14112     1 
14107 14110     1 
14108 14110     1 
14109 14113     1 
14109 14114     1 
14109 14162     1 
14110 14163     1 
14110 14164     1 
14110 14165     1 
14111 14113     1 
14111 14114     1 
14111 14162     1 
14112 14166     1 
14112 14167     1 
14112 14168     1 
14113 14163     1 
14113 14164     1 
14113 14165     1 
14114 14163     1 
14114 14164     1 
14114 14165     1 
14115 14122     1 
14115 14123     1 
14115 14124     1 
14116 14119     1 
14116 14120     1 
14116 14121     1 
14117 14119     1 
14117 14120     1 
14117 14121     1 
14118 14125     1 
14118 14126     1 
14118 14127     1 
14119 14122     1 
14119 14123     1 
14119 14124     1 
14120 14122     1 
14120 14123     1 
14120 14124     1 
14121 14128     1 
14121 14129     1 
14121 14130     1 
14122 14125     1 
14122 14126     1 
14122 14127     1 
14123 14125     1 
14123 14126     1 
14123 14127     1 
14124 14131     1 
14124 14132     1 
14124 14133     1 
14125 14128     1 
14125 14129     1 
14125 14130     1 
14126 14128     1 
14126 14129     1 
14126 14130     1 
14127 14134     1 
14127 14135     1 
14128 14131     1 
14128 14132     1 
14128 14133     1 
14129 14131     1 
14129 14132     1 
14129 14133     1 
14130 14136     1 
14130 14137     1 
14131 14134     1 
14131 14135     1 
14132 14134     1 
14132 14135     1 
14133 14138     1 
14133 14139     1 
14133 14140     1 
14134 14136     1 
14134 14137     1 
14135 14141     1 
14135 14142     1 
14135 14143     1 
14136 14138     1 
14136 14139     1 
14136 14140     1 
14137 14144     1 
14137 14145     1 
14137 14146     1 
14138 14141     1 
14138 14142     1 
14138 14143     1 
14139 14141     1 
14139 14142     1 
14139 14143     1 
14140 14147     1 
14140 14148     1 
14140 14149     1 
14141 14144     1 
14141 14145     1 
14141 14146     1 
14142 14144     1 
14142 14145     1 
14142 14146     1 
14143 14150     1 
14143 14151     1 
14143 14152     1 
14144 14147     1 
14144 14148     1 
14144 14149     1 
14145 14147     1 
14145 14148     1 
14145 14149     1 
14146 14153     1 
14146 14154     1 
14146 14155     1 
14147 14150     1 
14147 14151     1 
14147 14152     1 
14148 14150     1 
14148 14151     1 
14148 14152     1 
14149 14156     1 
14149 14157     1 
14149 14158     1 
14150 14153     1 
14150 14154     1 
14150 14155     1 
14151 14153     1 
14151 14154     1 
14151 14155     1 
14152 14159     1 
14152 14160     1 
14152 14161     1 
14153 14156     1 
14153 14157     1 
14153 14158     1 
14154 14156     1 
14154 14157     1 
14154 14158     1 
14156 14159     1 
14156 14160     1 
14156 14161     1 
14157 14159     1 
14157 14160     1 
14157 14161     1 
14162 14169     1 
14162 14170     1 
14162 14171     1 
14163 14166     1 
14163 14167     1 
14163 14168     1 
14164 14166     1 
14164 14167     1 
14164 14168     1 
14165 14172     1 
14165 14173     1 
14165 14174     1 
14166 14169     1 
14166 14170     1 
14166 14171     1 
14167 14169     1 
14167 14170     1 
14167 14171     1 
14168 14175     1 
14168 14176     1 
14168 14177     1 
14169 14172     1 
14169 14173     1 
14169 14174     1 
14170 14172     1 
14170 14173     1 
14170 14174     1 
14171 14178     1 
14171 14179     1 
14171 14180     1 
14172 14175     1 
14172 14176     1 
14172 14177     1 
14173 14175     1 
14173 14176     1 
14173 14177     1 
14174 14181     1 
14174 14182     1 
14174 14183     1 
14175 14178     1 
14175 14179     1 
14175 14180     1 
14176 14178     1 
14176 14179     1 
14176 14180     1 
14177 14184     1 
14177 14185     1 
14177 14186     1 
14178 14181     1 
14178 14182     1 
14178 14183     1 
14179 14181     1 
14179 14182     1 
14179 14183     1 
14180 14187     1 
14180 14188     1 
14180 14189     1 
14181 14184     1 
14181 14185     1 
14181 14186     1 
14182 14184     1 
14182 14185     1 
14182 14186     1 
14183 14190     1 
14183 14191     1 
14183 14192     1 
14184 14187     1 
14184 14188     1 
14184 14189     1 
14185 14187     1 
14185 14188     1 
14185 14189     1 
14186 14193     1 
14186 14194     1 
14186 14195     1 
14187 14190     1 
14187 14191     1 
14187 14192     1 
14188 14190     1 
14188 14191     1 
14188 14192     1 
14189 14196     1 
14189 14197     1 
14189 14198     1 
14190 14193     1 
14190 14194     1 
14190 14195     1 
14191 14193     1 
14191 14194     1 
14191 14195     1 
14192 14199     1 
14192 14200     1 
14192 14201     1 
14193 14196     1 
14193 14197     1 
14193 14198     1 
14194 14196     1 
14194 14197     1 
14194 14198     1 
14195 14202     1 
14195 14203     1 
14195 14204     1 
14196 14199     1 
14196 14200     1 
14196 14201     1 
14197 14199     1 
14197 14200     1 
14197 14201     1 
14199 14202     1 
14199 14203     1 
14199 14204     1 
14200 14202     1 
14200 14203     1 
14200 14204     1 
14205 14222     1 
14205 14223     1 
14205 14227     1 
14206 14210     1 
14206 14211     1 
14206 14212     1 
14206 14214     1 
14206 14215     1 
14206 14216     1 
14206 14218     1 
14206 14219     1 
14206 14220     1 
14206 14224     1 
14207 14209     1 
14207 14213     1 
14207 14217     1 
14207 14222     1 
14207 14223     1 
14207 14227     1 
14208 14209     1 
14208 14213     1 
14208 14217     1 
14208 14222     1 
14208 14223     1 
14208 14227     1 
14209 14214     1 
14209 14215     1 
14209 14216     1 
14209 14218     1 
14209 14219     1 
14209 14220     1 
14209 14221     1 
14210 14213     1 
14210 14217     1 
14211 14213     1 
14211 14217     1 
14212 14213     1 
14212 14217     1 
14213 14218     1 
14213 14219     1 
14213 14220     1 
14213 14221     1 
14214 14217     1 
14215 14217     1 
14216 14217     1 
14217 14221     1 
14221 14225     1 
14221 14226     1 
14221 14228     1 
14222 14224     1 
14223 14224     1 
14224 14230     1 
14224 14231     1 
14224 14232     1 
14225 14229     1 
14226 14229     1 
14227 14229     1 
14228 14233     1 
14228 14234     1 
14228 14240     1 
14229 14235     1 
14229 14241     1 
14229 14242     1 
14229 14243     1 
14230 14233     1 
14230 14234     1 
14230 14240     1 
14231 14233     1 
14231 14234     1 
14231 14240     1 
14232 14236     1 
14232 14237     1 
14232 14244     1 
14233 14235     1 
14233 14241     1 
14233 14242     1 
14233 14243     1 
14234 14238     1 
14234 14239     1 
14234 14241     1 
14234 14242     1 
14234 14243     1 
14234 14249     1 
14235 14240     1 
14235 14250     1 
14235 14251     1 
14235 14252     1 
14236 14238     1 
14236 14239     1 
14236 14249     1 
14237 14253     1 
14237 14254     1 
14237 14255     1 
14238 14250     1 
14238 14251     1 
14238 14252     1 
14239 14250     1 
14239 14251     1 
14239 14252     1 
14240 14245     1 
14240 14246     1 
14241 14244     1 
14242 14244     1 
14243 14247     1 
14243 14248     1 
14243 14296     1 
14244 14297     1 
14244 14298     1 
14244 14299     1 
14245 14247     1 
14245 14248     1 
14245 14296     1 
14246 14300     1 
14246 14301     1 
14246 14302     1 
14247 14297     1 
14247 14298     1 
14247 14299     1 
14248 14297     1 
14248 14298     1 
14248 14299     1 
14249 14256     1 
14249 14257     1 
14249 14258     1 
14250 14253     1 
14250 14254     1 
14250 14255     1 
14251 14253     1 
14251 14254     1 
14251 14255     1 
14252 14259     1 
14252 14260     1 
14252 14261     1 
14253 14256     1 
14253 14257     1 
14253 14258     1 
14254 14256     1 
14254 14257     1 
14254 14258     1 
14255 14262     1 
14255 14263     1 
14255 14264     1 
14256 14259     1 
14256 14260     1 
14256 14261     1 
14257 14259     1 
14257 14260     1 
14257 14261     1 
14258 14265     1 
14258 14266     1 
14258 14267     1 
14259 14262     1 
14259 14263     1 
14259 14264     1 
14260 14262     1 
14260 14263     1 
14260 14264     1 
14261 14268     1 
14261 14269     1 
14262 14265     1 
14262 14266     1 
14262 14267     1 
14263 14265     1 
14263 14266     1 
14263 14267     1 
14264 14270     1 
14264 14271     1 
14265 14268     1 
14265 14269     1 
14266 14268     1 
14266 14269     1 
14267 14272     1 
14267 14273     1 
14267 14274     1 
14268 14270     1 
14268 14271     1 
14269 14275     1 
14269 14276     1 
14269 14277     1 
14270 14272     1 
14270 14273     1 
14270 14274     1 
14271 14278     1 
14271 14279     1 
14271 14280     1 
14272 14275     1 
14272 14276     1 
14272 14277     1 
14273 14275     1 
14273 14276     1 
14273 14277     1 
14274 14281     1 
14274 14282     1 
14274 14283     1 
14275 14278     1 
14275 14279     1 
14275 14280     1 
14276 14278     1 
14276 14279     1 
14276 14280     1 
14277 14284     1 
14277 14285     1 
14277 14286     1 
14278 14281     1 
14278 14282     1 
14278 14283     1 
14279 14281     1 
14279 14282     1 
14279 14283     1 
14280 14287     1 
14280 14288     1 
14280 14289     1 
14281 14284     1 
14281 14285     1 
14281 14286     1 
14282 14284     1 
14282 14285     1 
14282 14286     1 
14283 14290     1 
14283 14291     1 
14283 14292     1 
14284 14287     1 
14284 14288     1 
14284 14289     1 
14285 14287     1 
14285 14288     1 
14285 14289     1 
14286 14293     1 
14286 14294     1 
14286 14295     1 
14287 14290     1 
14287 14291     1 
14287 14292     1 
14288 14290     1 
14288 14291     1 
14288 14292     1 
14290 14293     1 
14290 14294     1 
14290 14295     1 
14291 14293     1 
14291 14294     1 
14291 14295     1 
14296 14303     1 
14296 14304     1 
14296 14305     1 
14297 14300     1 
14297 14301     1 
14297 14302     1 
14298 14300     1 
14298 14301     1 
14298 14302     1 
14299 14306     1 
14299 14307     1 
14299 14308     1 
14300 14303     1 
14300 14304     1 
14300 14305     1 
14301 14303     1 
14301 14304     1 
14301 14305     1 
14302 14309     1 
14302 14310     1 
14302 14311     1 
14303 14306     1 
14303 14307     1 
14303 14308     1 
14304 14306     1 
14304 14307     1 
14304 14308     1 
14305 14312     1 
14305 14313     1 
14305 14314     1 
14306 14309     1 
14306 14310     1 
14306 14311     1 
14307 14309     1 
14307 14310     1 
14307 14311     1 
14308 14315     1 
14308 14316     1 
14308 14317     1 
14309 14312     1 
14309 14313     1 
14309 14314     1 
14310 14312     1 
14310 14313     1 
14310 14314     1 
14311 14318     1 
14311 14319     1 
14311 14320     1 
14312 14315     1 
14312 14316     1 
14312 14317     1 
14313 14315     1 
14313 14316     1 
14313 14317     1 
14314 14321     1 
14314 14322     1 
14314 14323     1 
14315 14318     1 
14315 14319     1 
14315 14320     1 
14316 14318     1 
14316 14319     1 
14316 14320     1 
14317 14324     1 
14317 14325     1 
14317 14326     1 
14318 14321     1 
14318 14322     1 
14318 14323     1 
14319 14321     1 
14319 14322     1 
14319 14323     1 
14320 14327     1 
14320 14328     1 
14320 14329     1 
14321 14324     1 
14321 14325     1 
14321 14326     1 
14322 14324     1 
14322 14325     1 
14322 14326     1 
14323 14330     1 
14323 14331     1 
14323 14332     1 
14324 14327     1 
14324 14328     1 
14324 14329     1 
14325 14327     1 
14325 14328     1 
14325 14329     1 
14326 14333     1 
14326 14334     1 
14326 14335     1 
14327 14330     1 
14327 14331     1 
14327 14332     1 
14328 14330     1 
14328 14331     1 
14328 14332     1 
14329 14336     1 
14329 14337     1 
14329 14338     1 
14330 14333     1 
14330 14334     1 
14330 14335     1 
14331 14333     1 
14331 14334     1 
14331 14335     1 
14333 14336     1 
14333 14337     1 
14333 14338     1 
14334 14336     1 
14334 14337     1 
14334 14338     1 
14339 14356     1 
14339 14357     1 
14339 14361     1 
14340 14344     1 
14340 14345     1 
14340 14346     1 
14340 14348     1 
14340 14349     1 
14340 14350     1 
14340 14352     1 
14340 14353     1 
14340 14354     1 
14340 14358     1 
14341 14343     1 
14341 14347     1 
14341 14351     1 
14341 14356     1 
14341 14357     1 
14341 14361     1 
14342 14343     1 
14342 14347     1 
14342 14351     1 
14342 14356     1 
14342 14357     1 
14342 14361     1 
14343 14348     1 
14343 14349     1 
14343 14350     1 
14343 14352     1 
14343 14353     1 
14343 14354     1 
14343 14355     1 
14344 14347     1 
14344 14351     1 
14345 14347     1 
14345 14351     1 
14346 14347     1 
14346 14351     1 
14347 14352     1 
14347 14353     1 
14347 14354     1 
14347 14355     1 
14348 14351     1 
14349 14351     1 
14350 14351     1 
14351 14355     1 
14355 14359     1 
14355 14360     1 
14355 14362     1 
14356 14358     1 
14357 14358     1 
14358 14364     1 
14358 14365     1 
14358 14366     1 
14359 14363     1 
14360 14363     1 
14361 14363     1 
14362 14367     1 
14362 14368     1 
14362 14374     1 
14363 14369     1 
14363 14375     1 
14363 14376     1 
14363 14377     1 
14364 14367     1 
14364 14368     1 
14364 14374     1 
14365 14367     1 
14365 14368     1 
14365 14374     1 
14366 14370     1 
14366 14371     1 
14366 14378     1 
14367 14369     1 
14367 14375     1 
14367 14376     1 
14367 14377     1 
14368 14372     1 
14368 14373     1 
14368 14375     1 
14368 14376     1 
14368 14377     1 
14368 14383     1 
14369 14374     1 
14369 14384     1 
14369 14385     1 
14369 14386     1 
14370 14372     1 
14370 14373     1 
14370 14383     1 
14371 14387     1 
14371 14388     1 
14371 14389     1 
14372 14384     1 
14372 14385     1 
14372 14386     1 
14373 14384     1 
14373 14385     1 
14373 14386     1 
14374 14379     1 
14374 14380     1 
14375 14378     1 
14376 14378     1 
14377 14381     1 
14377 14382     1 
14377 14430     1 
14378 14431     1 
14378 14432     1 
14378 14433     1 
14379 14381     1 
14379 14382     1 
14379 14430     1 
14380 14434     1 
14380 14435     1 
14380 14436     1 
14381 14431     1 
14381 14432     1 
14381 14433     1 
14382 14431     1 
14382 14432     1 
14382 14433     1 
14383 14390     1 
14383 14391     1 
14383 14392     1 
14384 14387     1 
14384 14388     1 
14384 14389     1 
14385 14387     1 
14385 14388     1 
14385 14389     1 
14386 14393     1 
14386 14394     1 
14386 14395     1 
14387 14390     1 
14387 14391     1 
14387 14392     1 
14388 14390     1 
14388 14391     1 
14388 14392     1 
14389 14396     1 
14389 14397     1 
14389 14398     1 
14390 14393     1 
14390 14394     1 
14390 14395     1 
14391 14393     1 
14391 14394     1 
14391 14395     1 
14392 14399     1 
14392 14400     1 
14392 14401     1 
14393 14396     1 
14393 14397     1 
14393 14398     1 
14394 14396     1 
14394 14397     1 
14394 14398     1 
14395 14402     1 
14395 14403     1 
14396 14399     1 
14396 14400     1 
14396 14401     1 
14397 14399     1 
14397 14400     1 
14397 14401     1 
14398 14404     1 
14398 14405     1 
14399 14402     1 
14399 14403     1 
14400 14402     1 
14400 14403     1 
14401 14406     1 
14401 14407     1 
14401 14408     1 
14402 14404     1 
14402 14405     1 
14403 14409     1 
14403 14410     1 
14403 14411     1 
14404 14406     1 
14404 14407     1 
14404 14408     1 
14405 14412     1 
14405 14413     1 
14405 14414     1 
14406 14409     1 
14406 14410     1 
14406 14411     1 
14407 14409     1 
14407 14410     1 
14407 14411     1 
14408 14415     1 
14408 14416     1 
14408 14417     1 
14409 14412     1 
14409 14413     1 
14409 14414     1 
14410 14412     1 
14410 14413     1 
14410 14414     1 
14411 14418     1 
14411 14419     1 
14411 14420     1 
14412 14415     1 
14412 14416     1 
14412 14417     1 
14413 14415     1 
14413 14416     1 
14413 14417     1 
14414 14421     1 
14414 14422     1 
14414 14423     1 
14415 14418     1 
14415 14419     1 
14415 14420     1 
14416 14418     1 
14416 14419     1 
14416 14420     1 
14417 14424     1 
14417 14425     1 
14417 14426     1 
14418 14421     1 
14418 14422     1 
14418 14423     1 
14419 14421     1 
14419 14422     1 
14419 14423     1 
14420 14427     1 
14420 14428     1 
14420 14429     1 
14421 14424     1 
14421 14425     1 
14421 14426     1 
14422 14424     1 
14422 14425     1 
14422 14426     1 
14424 14427     1 
14424 14428     1 
14424 14429     1 
14425 14427     1 
14425 14428     1 
14425 14429     1 
14430 14437     1 
14430 14438     1 
14430 14439     1 
14431 14434     1 
14431 14435     1 
14431 14436     1 
14432 14434     1 
14432 14435     1 
14432 14436     1 
14433 14440     1 
14433 14441     1 
14433 14442     1 
14434 14437     1 
14434 14438     1 
14434 14439     1 
14435 14437     1 
14435 14438     1 
14435 14439     1 
14436 14443     1 
14436 14444     1 
14436 14445     1 
14437 14440     1 
14437 14441     1 
14437 14442     1 
14438 14440     1 
14438 14441     1 
14438 14442     1 
14439 14446     1 
14439 14447     1 
14439 14448     1 
14440 14443     1 
14440 14444     1 
14440 14445     1 
14441 14443     1 
14441 14444     1 
14441 14445     1 
14442 14449     1 
14442 14450     1 
14442 14451     1 
14443 14446     1 
14443 14447     1 
14443 14448     1 
14444 14446     1 
14444 14447     1 
14444 14448     1 
14445 14452     1 
14445 14453     1 
14445 14454     1 
14446 14449     1 
14446 14450     1 
14446 14451     1 
14447 14449     1 
14447 14450     1 
14447 14451     1 
14448 14455     1 
14448 14456     1 
14448 14457     1 
14449 14452     1 
14449 14453     1 
14449 14454     1 
14450 14452     1 
14450 14453     1 
14450 14454     1 
14451 14458     1 
14451 14459     1 
14451 14460     1 
14452 14455     1 
14452 14456     1 
14452 14457     1 
14453 14455     1 
14453 14456     1 
14453 14457     1 
14454 14461     1 
14454 14462     1 
14454 14463     1 
14455 14458     1 
14455 14459     1 
14455 14460     1 
14456 14458     1 
14456 14459     1 
14456 14460     1 
14457 14464     1 
14457 14465     1 
14457 14466     1 
14458 14461     1 
14458 14462     1 
14458 14463     1 
14459 14461     1 
14459 14462     1 
14459 14463     1 
14460 14467     1 
14460 14468     1 
14460 14469     1 
14461 14464     1 
14461 14465     1 
14461 14466     1 
14462 14464     1 
14462 14465     1 
14462 14466     1 
14463 14470     1 
14463 14471     1 
14463 14472     1 
14464 14467     1 
14464 14468     1 
14464 14469     1 
14465 14467     1 
14465 14468     1 
14465 14469     1 
14467 14470     1 
14467 14471     1 
14467 14472     1 
14468 14470     1 
14468 14471     1 
14468 14472     1 
14473 14490     1 
14473 14491     1 
14473 14495     1 
14474 14478     1 
14474 14479     1 
14474 14480     1 
14474 14482     1 
14474 14483     1 
14474 14484     1 
14474 14486     1 
14474 14487     1 
14474 14488     1 
14474 14492     1 
14475 14477     1 
14475 14481     1 
14475 14485     1 
14475 14490     1 
14475 14491     1 
14475 14495     1 
14476 14477     1 
14476 14481     1 
14476 14485     1 
14476 14490     1 
14476 14491     1 
14476 14495     1 
14477 14482     1 
14477 14483     1 
14477 14484     1 
14477 14486     1 
14477 14487     1 
14477 14488     1 
14477 14489     1 
14478 14481     1 
14478 14485     1 
14479 14481     1 
14479 14485     1 
14480 14481     1 
14480 14485     1 
14481 14486     1 
14481 14487     1 
14481 14488     1 
14481 14489     1 
14482 14485     1 
14483 14485     1 
14484 14485     1 
14485 14489     1 
14489 14493     1 
14489 14494     1 
14489 14496     1 
14490 14492     1 
14491 14492     1 
14492 14498     1 
14492 14499     1 
14492 14500     1 
14493 14497     1 
14494 14497     1 
14495 14497     1 
14496 14501     1 
14496 14502     1 
14496 14508     1 
14497 14503     1 
14497 14509     1 
14497 14510     1 
14497 14511     1 
14498 14501     1 
14498 14502     1 
14498 14508     1 
14499 14501     1 
14499 14502     1 
14499 14508     1 
14500 14504     1 
14500 14505     1 
14500 14512     1 
14501 14503     1 
14501 14509     1 
14501 14510     1 
14501 14511     1 
14502 14506     1 
14502 14507     1 
14502 14509     1 
14502 14510     1 
14502 14511     1 
14502 14517     1 
14503 14508     1 
14503 14518     1 
14503 14519     1 
14503 14520     1 
14504 14506     1 
14504 14507     1 
14504 14517     1 
14505 14521     1 
14505 14522     1 
14505 14523     1 
14506 14518     1 
14506 14519     1 
14506 14520     1 
14507 14518     1 
14507 14519     1 
14507 14520     1 
14508 14513     1 
14508 14514     1 
14509 14512     1 
14510 14512     1 
14511 14515     1 
14511 14516     1 
14511 14564     1 
14512 14565     1 
14512 14566     1 
14512 14567     1 
14513 14515     1 
14513 14516     1 
14513 14564     1 
14514 14568     1 
14514 14569     1 
14514 14570     1 
14515 14565     1 
14515 14566     1 
14515 14567     1 
14516 14565     1 
14516 14566     1 
14516 14567     1 
14517 14524     1 
14517 14525     1 
14517 14526     1 
14518 14521     1 
14518 14522     1 
14518 14523     1 
14519 14521     1 
14519 14522     1 
14519 14523     1 
14520 14527     1 
14520 14528     1 
14520 14529     1 
14521 14524     1 
14521 14525     1 
14521 14526     1 
14522 14524     1 
14522 14525     1 
14522 14526     1 
14523 14530     1 
14523 14531     1 
14523 14532     1 
14524 14527     1 
14524 14528     1 
14524 14529     1 
14525 14527     1 
14525 14528     1 
14525 14529     1 
14526 14533     1 
14526 14534     1 
14526 14535     1 
14527 14530     1 
14527 14531     1 
14527 14532     1 
14528 14530     1 
14528 14531     1 
14528 14532     1 
14529 14536     1 
14529 14537     1 
14530 14533     1 
14530 14534     1 
14530 14535     1 
14531 14533     1 
14531 14534     1 
14531 14535     1 
14532 14538     1 
14532 14539     1 
14533 14536     1 
14533 14537     1 
14534 14536     1 
14534 14537     1 
14535 14540     1 
14535 14541     1 
14535 14542     1 
14536 14538     1 
14536 14539     1 
14537 14543     1 
14537 14544     1 
14537 14545     1 
14538 14540     1 
14538 14541     1 
14538 14542     1 
14539 14546     1 
14539 14547     1 
14539 14548     1 
14540 14543     1 
14540 14544     1 
14540 14545     1 
14541 14543     1 
14541 14544     1 
14541 14545     1 
14542 14549     1 
14542 14550     1 
14542 14551     1 
14543 14546     1 
14543 14547     1 
14543 14548     1 
14544 14546     1 
14544 14547     1 
14544 14548     1 
14545 14552     1 
14545 14553     1 
14545 14554     1 
14546 14549     1 
14546 14550     1 
14546 14551     1 
14547 14549     1 
14547 14550     1 
14547 14551     1 
14548 14555     1 
14548 14556     1 
14548 14557     1 
14549 14552     1 
14549 14553     1 
14549 14554     1 
14550 14552     1 
14550 14553     1 
14550 14554     1 
14551 14558     1 
14551 14559     1 
14551 14560     1 
14552 14555     1 
14552 14556     1 
14552 14557     1 
14553 14555     1 
14553 14556     1 
14553 14557     1 
14554 14561     1 
14554 14562     1 
14554 14563     1 
14555 14558     1 
14555 14559     1 
14555 14560     1 
14556 14558     1 
14556 14559     1 
14556 14560     1 
14558 14561     1 
14558 14562     1 
14558 14563     1 
14559 14561     1 
14559 14562     1 
14559 14563     1 
14564 14571     1 
14564 14572     1 
14564 14573     1 
14565 14568     1 
14565 14569     1 
14565 14570     1 
14566 14568     1 
14566 14569     1 
14566 14570     1 
14567 14574     1 
14567 14575     1 
14567 14576     1 
14568 14571     1 
14568 14572     1 
14568 14573     1 
14569 14571     1 
14569 14572     1 
14569 14573     1 
14570 14577     1 
14570 14578     1 
14570 14579     1 
14571 14574     1 
14571 14575     1 
14571 14576     1 
14572 14574     1 
14572 14575     1 
14572 14576     1 
14573 14580     1 
14573 14581     1 
14573 14582     1 
14574 14577     1 
14574 14578     1 
14574 14579     1 
14575 14577     1 
14575 14578     1 
14575 14579     1 
14576 14583     1 
14576 14584     1 
14576 14585     1 
14577 14580     1 
14577 14581     1 
14577 14582     1 
14578 14580     1 
14578 14581     1 
14578 14582     1 
14579 14586     1 
14579 14587     1 
14579 14588     1 
14580 14583     1 
14580 14584     1 
14580 14585     1 
14581 14583     1 
14581 14584     1 
14581 14585     1 
14582 14589     1 
14582 14590     1 
14582 14591     1 
14583 14586     1 
14583 14587     1 
14583 14588     1 
14584 14586     1 
14584 14587     1 
14584 14588     1 
14585 14592     1 
14585 14593     1 
14585 14594     1 
14586 14589     1 
14586 14590     1 
14586 14591     1 
14587 14589     1 
14587 14590     1 
14587 14591     1 
14588 14595     1 
14588 14596     1 
14588 14597     1 
14589 14592     1 
14589 14593     1 
14589 14594     1 
14590 14592     1 
14590 14593     1 
14590 14594     1 
14591 14598     1 
14591 14599     1 
14591 14600     1 
14592 14595     1 
14592 14596     1 
14592 14597     1 
14593 14595     1 
14593 14596     1 
14593 14597     1 
14594 14601     1 
14594 14602     1 
14594 14603     1 
14595 14598     1 
14595 14599     1 
14595 14600     1 
14596 14598     1 
14596 14599     1 
14596 14600     1 
14597 14604     1 
14597 14605     1 
14597 14606     1 
14598 14601     1 
14598 14602     1 
14598 14603     1 
14599 14601     1 
14599 14602     1 
14599 14603     1 
14601 14604     1 
14601 14605     1 
14601 14606     1 
14602 14604     1 
14602 14605     1 
14602 14606     1 
14607 14624     1 
14607 14625     1 
14607 14629     1 
14608 14612     1 
14608 14613     1 
14608 14614     1 
14608 14616     1 
14608 14617     1 
14608 14618     1 
14608 14620     1 
14608 14621     1 
14608 14622     1 
14608 14626     1 
14609 14611     1 
14609 14615     1 
14609 14619     1 
14609 14624     1 
14609 14625     1 
14609 14629     1 
14610 14611     1 
14610 14615     1 
14610 14619     1 
14610 14624     1 
14610 14625     1 
14610 14629     1 
14611 14616     1 
14611 14617     1 
14611 14618     1 
14611 14620     1 
14611 14621     1 
14611 14622     1 
14611 14623     1 
14612 14615     1 
14612 14619     1 
14613 14615     1 
14613 14619     1 
14614 14615     1 
14614 14619     1 
14615 14620     1 
14615 14621     1 
14615 14622     1 
14615 14623     1 
14616 14619     1 
14617 14619     1 
14618 14619     1 
14619 14623     1 
14623 14627     1 
14623 14628     1 
14623 14630     1 
14624 14626     1 
14625 14626     1 
14626 14632     1 
14626 14633     1 
14626 14634     1 
14627 14631     1 
14628 14631     1 
14629 14631     1 
14630 14635     1 
14630 14636     1 
14630 14642     1 
14631 14637     1 
14631 14643     1 
14631 14644     1 
14631 14645     1 
14632 14635     1 
14632 14636     1 
14632 14642     1 
14633 14635     1 
14633 14636     1 
14633 14642     1 
14634 14638     1 
14634 14639     1 
14634 14646     1 
14635 14637     1 
14635 14643     1 
14635 14644     1 
14635 14645     1 
14636 14640     1 
14636 14641     1 
14636 14643     1 
14636 14644     1 
14636 14645     1 
14636 14651     1 
14637 14642     1 
14637 14652     1 
14637 14653     1 
14637 14654     1 
14638 14640     1 
14638 14641     1 
14638 14651     1 
14639 14655     1 
14639 14656     1 
14639 14657     1 
14640 14652     1 
14640 14653     1 
14640 14654     1 
14641 14652     1 
14641 14653     1 
14641 14654     1 
14642 14647     1 
14642 14648     1 
14643 14646     1 
14644 14646     1 
14645 14649     1 
14645 14650     1 
14645 14698     1 
14646 14699     1 
14646 14700     1 
14646 14701     1 
14647 14649     1 
14647 14650     1 
14647 14698     1 
14648 14702     1 
14648 14703     1 
14648 14704     1 
14649 14699     1 
14649 14700     1 
14649 14701     1 
14650 14699     1 
14650 14700     1 
14650 14701     1 
14651 14658     1 
14651 14659     1 
14651 14660     1 
14652 14655     1 
14652 14656     1 
14652 14657     1 
14653 14655     1 
14653 14656     1 
14653 14657     1 
14654 14661     1 
14654 14662     1 
14654 14663     1 
14655 14658     1 
14655 14659     1 
14655 14660     1 
14656 14658     1 
14656 14659     1 
14656 14660     1 
14657 14664     1 
14657 14665     1 
14657 14666     1 
14658 14661     1 
14658 14662     1 
14658 14663     1 
14659 14661     1 
14659 14662     1 
14659 14663     1 
14660 14667     1 
14660 14668     1 
14660 14669     1 
14661 14664     1 
14661 14665     1 
14661 14666     1 
14662 14664     1 
14662 14665     1 
14662 14666     1 
14663 14670     1 
14663 14671     1 
14664 14667     1 
14664 14668     1 
14664 14669     1 
14665 14667     1 
14665 14668     1 
14665 14669     1 
14666 14672     1 
14666 14673     1 
14667 14670     1 
14667 14671     1 
14668 14670     1 
14668 14671     1 
14669 14674     1 
14669 14675     1 
14669 14676     1 
14670 14672     1 
14670 14673     1 
14671 14677     1 
14671 14678     1 
14671 14679     1 
14672 14674     1 
14672 14675     1 
14672 14676     1 
14673 14680     1 
14673 14681     1 
14673 14682     1 
14674 14677     1 
14674 14678     1 
14674 14679     1 
14675 14677     1 
14675 14678     1 
14675 14679     1 
14676 14683     1 
14676 14684     1 
14676 14685     1 
14677 14680     1 
14677 14681     1 
14677 14682     1 
14678 14680     1 
14678 14681     1 
14678 14682     1 
14679 14686     1 
14679 14687     1 
14679 14688     1 
14680 14683     1 
14680 14684     1 
14680 14685     1 
14681 14683     1 
14681 14684     1 
14681 14685     1 
14682 14689     1 
14682 14690     1 
14682 14691     1 
14683 14686     1 
14683 14687     1 
14683 14688     1 
14684 14686     1 
14684 14687     1 
14684 14688     1 
14685 14692     1 
14685 14693     1 
14685 14694     1 
14686 14689     1 
14686 14690     1 
14686 14691     1 
14687 14689     1 
14687 14690     1 
14687 14691     1 
14688 14695     1 
14688 14696     1 
14688 14697     1 
14689 14692     1 
14689 14693     1 
14689 14694     1 
14690 14692     1 
14690 14693     1 
14690 14694     1 
14692 14695     1 
14692 14696     1 
14692 14697     1 
14693 14695     1 
14693 14696     1 
14693 14697     1 
14698 14705     1 
14698 14706     1 
14698 14707     1 
14699 14702     1 
14699 14703     1 
14699 14704     1 
14700 14702     1 
14700 14703     1 
14700 14704     1 
14701 14708     1 
14701 14709     1 
14701 14710     1 
14702 14705     1 
14702 14706     1 
14702 14707     1 
14703 14705     1 
14703 14706     1 
14703 14707     1 
14704 14711     1 
14704 14712     1 
14704 14713     1 
14705 14708     1 
14705 14709     1 
14705 14710     1 
14706 14708     1 
14706 14709     1 
14706 14710     1 
14707 14714     1 
14707 14715     1 
14707 14716     1 
14708 14711     1 
14708 14712     1 
14708 14713     1 
14709 14711     1 
14709 14712     1 
14709 14713     1 
14710 14717     1 
14710 14718     1 
14710 14719     1 
14711 14714     1 
14711 14715     1 
14711 14716     1 
14712 14714     1 
14712 14715     1 
14712 14716     1 
14713 14720     1 
14713 14721     1 
14713 14722     1 
14714 14717     1 
14714 14718     1 
14714 14719     1 
14715 14717     1 
14715 14718     1 
14715 14719     1 
14716 14723     1 
14716 14724     1 
14716 14725     1 
14717 14720     1 
14717 14721     1 
14717 14722     1 
14718 14720     1 
14718 14721     1 
14718 14722     1 
14719 14726     1 
14719 14727     1 
14719 14728     1 
14720 14723     1 
14720 14724     1 
14720 14725     1 
14721 14723     1 
14721 14724     1 
14721 14725     1 
14722 14729     1 
14722 14730     1 
14722 14731     1 
14723 14726     1 
14723 14727     1 
14723 14728     1 
14724 14726     1 
14724 14727     1 
14724 14728     1 
14725 14732     1 
14725 14733     1 
14725 14734     1 
14726 14729     1 
14726 14730     1 
14726 14731     1 
14727 14729     1 
14727 14730     1 
14727 14731     1 
14728 14735     1 
14728 14736     1 
14728 14737     1 
14729 14732     1 
14729 14733     1 
14729 14734     1 
14730 14732     1 
14730 14733     1 
14730 14734     1 
14731 14738     1 
14731 14739     1 
14731 14740     1 
14732 14735     1 
14732 14736     1 
14732 14737     1 
14733 14735     1 
14733 14736     1 
14733 14737     1 
14735 14738     1 
14735 14739     1 
14735 14740     1 
14736 14738     1 
14736 14739     1 
14736 14740     1 
14741 14758     1 
14741 14759     1 
14741 14763     1 
14742 14746     1 
14742 14747     1 
14742 14748     1 
14742 14750     1 
14742 14751     1 
14742 14752     1 
14742 14754     1 
14742 14755     1 
14742 14756     1 
14742 14760     1 
14743 14745     1 
14743 14749     1 
14743 14753     1 
14743 14758     1 
14743 14759     1 
14743 14763     1 
14744 14745     1 
14744 14749     1 
14744 14753     1 
14744 14758     1 
14744 14759     1 
14744 14763     1 
14745 14750     1 
14745 14751     1 
14745 14752     1 
14745 14754     1 
14745 14755     1 
14745 14756     1 
14745 14757     1 
14746 14749     1 
14746 14753     1 
14747 14749     1 
14747 14753     1 
14748 14749     1 
14748 14753     1 
14749 14754     1 
14749 14755     1 
14749 14756     1 
14749 14757     1 
14750 14753     1 
14751 14753     1 
14752 14753     1 
14753 14757     1 
14757 14761     1 
14757 14762     1 
14757 14764     1 
14758 14760     1 
14759 14760     1 
14760 14766     1 
14760 14767     1 
14760 14768     1 
14761 14765     1 
14762 14765     1 
14763 14765     1 
14764 14769     1 
14764 14770     1 
14764 14776     1 
14765 14771     1 
14765 14777     1 
14765 14778     1 
14765 14779     1 
14766 14769     1 
14766 14770     1 
14766 14776     1 
14767 14769     1 
14767 14770     1 
14767 14776     1 
14768 14772     1 
14768 14773     1 
14768 14780     1 
14769 14771     1 
14769 14777     1 
14769 14778     1 
14769 14779     1 
14770 14774     1 
14770 14775     1 
14770 14777     1 
14770 14778     1 
14770 14779     1 
14770 14785     1 
14771 14776     1 
14771 14786     1 
14771 14787     1 
14771 14788     1 
14772 14774     1 
14772 14775     1 
14772 14785     1 
14773 14789     1 
14773 14790     1 
14773 14791     1 
14774 14786     1 
14774 14787     1 
14774 14788     1 
14775 14786     1 
14775 14787     1 
14775 14788     1 
14776 14781     1 
14776 14782     1 
14777 14780     1 
14778 14780     1 
14779 14783     1 
14779 14784     1 
14779 14832     1 
14780 14833     1 
14780 14834     1 
14780 14835     1 
14781 14783     1 
14781 14784     1 
14781 14832     1 
14782 14836     1 
14782 14837     1 
14782 14838     1 
14783 14833     1 
14783 14834     1 
14783 14835     1 
14784 14833     1 
14784 14834     1 
14784 14835     1 
14785 14792     1 
14785 14793     1 
14785 14794     1 
14786 14789     1 
14786 14790     1 
14786 14791     1 
14787 14789     1 
14787 14790     1 
14787 14791     1 
14788 14795     1 
14788 14796     1 
14788 14797     1 
14789 14792     1 
14789 14793     1 
14789 14794     1 
14790 14792     1 
14790 14793     1 
14790 14794     1 
14791 14798     1 
14791 14799     1 
14791 14800     1 
14792 14795     1 
14792 14796     1 
14792 14797     1 
14793 14795     1 
14793 14796     1 
14793 14797     1 
14794 14801     1 
14794 14802     1 
14794 14803     1 
14795 14798     1 
14795 14799     1 
14795 14800     1 
14796 14798     1 
14796 14799     1 
14796 14800     1 
14797 14804     1 
14797 14805     1 
14798 14801     1 
14798 14802     1 
14798 14803     1 
14799 14801     1 
14799 14802     1 
14799 14803     1 
14800 14806     1 
14800 14807     1 
14801 14804     1 
14801 14805     1 
14802 14804     1 
14802 14805     1 
14803 14808     1 
14803 14809     1 
14803 14810     1 
14804 14806     1 
14804 14807     1 
14805 14811     1 
14805 14812     1 
14805 14813     1 
14806 14808     1 
14806 14809     1 
14806 14810     1 
14807 14814     1 
14807 14815     1 
14807 14816     1 
14808 14811     1 
14808 14812     1 
14808 14813     1 
14809 14811     1 
14809 14812     1 
14809 14813     1 
14810 14817     1 
14810 14818     1 
14810 14819     1 
14811 14814     1 
14811 14815     1 
14811 14816     1 
14812 14814     1 
14812 14815     1 
14812 14816     1 
14813 14820     1 
14813 14821     1 
14813 14822     1 
14814 14817     1 
14814 14818     1 
14814 14819     1 
14815 14817     1 
14815 14818     1 
14815 14819     1 
14816 14823     1 
14816 14824     1 
14816 14825     1 
14817 14820     1 
14817 14821     1 
14817 14822     1 
14818 14820     1 
14818 14821     1 
14818 14822     1 
14819 14826     1 
14819 14827     1 
14819 14828     1 
14820 14823     1 
14820 14824     1 
14820 14825     1 
14821 14823     1 
14821 14824     1 
14821 14825     1 
14822 14829     1 
14822 14830     1 
14822 14831     1 
14823 14826     1 
14823 14827     1 
14823 14828     1 
14824 14826     1 
14824 14827     1 
14824 14828     1 
14826 14829     1 
14826 14830     1 
14826 14831     1 
14827 14829     1 
14827 14830     1 
14827 14831     1 
14832 14839     1 
14832 14840     1 
14832 14841     1 
14833 14836     1 
14833 14837     1 
14833 14838     1 
14834 14836     1 
14834 14837     1 
14834 14838     1 
14835 14842     1 
14835 14843     1 
14835 14844     1 
14836 14839     1 
14836 14840     1 
14836 14841     1 
14837 14839     1 
14837 14840     1 
14837 14841     1 
14838 14845     1 
14838 14846     1 
14838 14847     1 
14839 14842     1 
14839 14843     1 
14839 14844     1 
14840 14842     1 
14840 14843     1 
14840 14844     1 
14841 14848     1 
14841 14849     1 
14841 14850     1 
14842 14845     1 
14842 14846     1 
14842 14847     1 
14843 14845     1 
14843 14846     1 
14843 14847     1 
14844 14851     1 
14844 14852     1 
14844 14853     1 
14845 14848     1 
14845 14849     1 
14845 14850     1 
14846 14848     1 
14846 14849     1 
14846 14850     1 
14847 14854     1 
14847 14855     1 
14847 14856     1 
14848 14851     1 
14848 14852     1 
14848 14853     1 
14849 14851     1 
14849 14852     1 
14849 14853     1 
14850 14857     1 
14850 14858     1 
14850 14859     1 
14851 14854     1 
14851 14855     1 
14851 14856     1 
14852 14854     1 
14852 14855     1 
14852 14856     1 
14853 14860     1 
14853 14861     1 
14853 14862     1 
14854 14857     1 
14854 14858     1 
14854 14859     1 
14855 14857     1 
14855 14858     1 
14855 14859     1 
14856 14863     1 
14856 14864     1 
14856 14865     1 
14857 14860     1 
14857 14861     1 
14857 14862     1 
14858 14860     1 
14858 14861     1 
14858 14862     1 
14859 14866     1 
14859 14867     1 
14859 14868     1 
14860 14863     1 
14860 14864     1 
14860 14865     1 
14861 14863     1 
14861 14864     1 
14861 14865     1 
14862 14869     1 
14862 14870     1 
14862 14871     1 
14863 14866     1 
14863 14867     1 
14863 14868     1 
14864 14866     1 
14864 14867     1 
14864 14868     1 
14865 14872     1 
14865 14873     1 
14865 14874     1 
14866 14869     1 
14866 14870     1 
14866 14871     1 
14867 14869     1 
14867 14870     1 
14867 14871     1 
14869 14872     1 
14869 14873     1 
14869 14874     1 
14870 14872     1 
14870 14873     1 
14870 14874     1 
14875 14892     1 
14875 14893     1 
14875 14897     1 
14876 14880     1 
14876 14881     1 
14876 14882     1 
14876 14884     1 
14876 14885     1 
14876 14886     1 
14876 14888     1 
14876 14889     1 
14876 14890     1 
14876 14894     1 
14877 14879     1 
14877 14883     1 
14877 14887     1 
14877 14892     1 
14877 14893     1 
14877 14897     1 
14878 14879     1 
14878 14883     1 
14878 14887     1 
14878 14892     1 
14878 14893     1 
14878 14897     1 
14879 14884     1 
14879 14885     1 
14879 14886     1 
14879 14888     1 
14879 14889     1 
14879 14890     1 
14879 14891     1 
14880 14883     1 
14880 14887     1 
14881 14883     1 
14881 14887     1 
14882 14883     1 
14882 14887     1 
14883 14888     1 
14883 14889     1 
14883 14890     1 
14883 14891     1 
14884 14887     1 
14885 14887     1 
14886 14887     1 
14887 14891     1 
14891 14895     1 
14891 14896     1 
14891 14898     1 
14892 14894     1 
14893 14894     1 
14894 14900     1 
14894 14901     1 
14894 14902     1 
14895 14899     1 
14896 14899     1 
14897 14899     1 
14898 14903     1 
14898 14904     1 
14898 14910     1 
14899 14905     1 
14899 14911     1 
14899 14912     1 
14899 14913     1 
14900 14903     1 
14900 14904     1 
14900 14910     1 
14901 14903     1 
14901 14904     1 
14901 14910     1 
14902 14906     1 
14902 14907     1 
14902 14914     1 
14903 14905     1 
14903 14911     1 
14903 14912     1 
14903 14913     1 
14904 14908     1 
14904 14909     1 
14904 14911     1 
14904 14912     1 
14904 14913     1 
14904 14919     1 
14905 14910     1 
14905 14920     1 
14905 14921     1 
14905 14922     1 
14906 14908     1 
14906 14909     1 
14906 14919     1 
14907 14923     1 
14907 14924     1 
14907 14925     1 
14908 14920     1 
14908 14921     1 
14908 14922     1 
14909 14920     1 
14909 14921     1 
14909 14922     1 
14910 14915     1 
14910 14916     1 
14911 14914     1 
14912 14914     1 
14913 14917     1 
14913 14918     1 
14913 14966     1 
14914 14967     1 
14914 14968     1 
14914 14969     1 
14915 14917     1 
14915 14918     1 
14915 14966     1 
14916 14970     1 
14916 14971     1 
14916 14972     1 
14917 14967     1 
14917 14968     1 
14917 14969     1 
14918 14967     1 
14918 14968     1 
14918 14969     1 
14919 14926     1 
14919 14927     1 
14919 14928     1 
14920 14923     1 
14920 14924     1 
14920 14925     1 
14921 14923     1 
14921 14924     1 
14921 14925     1 
14922 14929     1 
14922 14930     1 
14922 14931     1 
14923 14926     1 
14923 14927     1 
14923 14928     1 
14924 14926     1 
14924 14927     1 
14924 14928     1 
14925 14932     1 
14925 14933     1 
14925 14934     1 
14926 14929     1 
14926 14930     1 
14926 14931     1 
14927 14929     1 
14927 14930     1 
14927 14931     1 
14928 14935     1 
14928 14936     1 
14928 14937     1 
14929 14932     1 
14929 14933     1 
14929 14934     1 
14930 14932     1 
14930 14933     1 
14930 14934     1 
14931 14938     1 
14931 14939     1 
14932 14935     1 
14932 14936     1 
14932 14937     1 
14933 14935     1 
14933 14936     1 
14933 14937     1 
14934 14940     1 
14934 14941     1 
14935 14938     1 
14935 14939     1 
14936 14938     1 
14936 14939     1 
14937 14942     1 
14937 14943     1 
14937 14944     1 
14938 14940     1 
14938 14941     1 
14939 14945     1 
14939 14946     1 
14939 14947     1 
14940 14942     1 
14940 14943     1 
14940 14944     1 
14941 14948     1 
14941 14949     1 
14941 14950     1 
14942 14945     1 
14942 14946     1 
14942 14947     1 
14943 14945     1 
14943 14946     1 
14943 14947     1 
14944 14951     1 
14944 14952     1 
14944 14953     1 
14945 14948     1 
14945 14949     1 
14945 14950     1 
14946 14948     1 
14946 14949     1 
14946 14950     1 
14947 14954     1 
14947 14955     1 
14947 14956     1 
14948 14951     1 
14948 14952     1 
14948 14953     1 
14949 14951     1 
14949 14952     1 
14949 14953     1 
14950 14957     1 
14950 14958     1 
14950 14959     1 
14951 14954     1 
14951 14955     1 
14951 14956     1 
14952 14954     1 
14952 14955     1 
14952 14956     1 
14953 14960     1 
14953 14961     1 
14953 14962     1 
14954 14957     1 
14954 14958     1 
14954 14959     1 
14955 14957     1 
14955 14958     1 
14955 14959     1 
14956 14963     1 
14956 14964     1 
14956 14965     1 
14957 14960     1 
14957 14961     1 
14957 14962     1 
14958 14960     1 
14958 14961     1 
14958 14962     1 
14960 14963     1 
14960 14964     1 
14960 14965     1 
14961 14963     1 
14961 14964     1 
14961 14965     1 
14966 14973     1 
14966 14974     1 
14966 14975     1 
14967 14970     1 
14967 14971     1 
14967 14972     1 
14968 14970     1 
14968 14971     1 
14968 14972     1 
14969 14976     1 
14969 14977     1 
14969 14978     1 
14970 14973     1 
14970 14974     1 
14970 14975     1 
14971 14973     1 
14971 14974     1 
14971 14975     1 
14972 14979     1 
14972 14980     1 
14972 14981     1 
14973 14976     1 
14973 14977     1 
14973 14978     1 
14974 14976     1 
14974 14977     1 
14974 14978     1 
14975 14982     1 
14975 14983     1 
14975 14984     1 
14976 14979     1 
14976 14980     1 
14976 14981     1 
14977 14979     1 
14977 14980     1 
14977 14981     1 
14978 14985     1 
14978 14986     1 
14978 14987     1 
14979 14982     1 
14979 14983     1 
14979 14984     1 
14980 14982     1 
14980 14983     1 
14980 14984     1 
14981 14988     1 
14981 14989     1 
14981 14990     1 
14982 14985     1 
14982 14986     1 
14982 14987     1 
14983 14985     1 
14983 14986     1 
14983 14987     1 
14984 14991     1 
14984 14992     1 
14984 14993     1 
14985 14988     1 
14985 14989     1 
14985 14990     1 
14986 14988     1 
14986 14989     1 
14986 14990     1 
14987 14994     1 
14987 14995     1 
14987 14996     1 
14988 14991     1 
14988 14992     1 
14988 14993     1 
14989 14991     1 
14989 14992     1 
14989 14993     1 
14990 14997     1 
14990 14998     1 
14990 14999     1 
14991 14994     1 
14991 14995     1 
14991 14996     1 
14992 14994     1 
14992 14995     1 
14992 14996     1 
14993 15000     1 
14993 15001     1 
14993 15002     1 
14994 14997     1 
14994 14998     1 
14994 14999     1 
14995 14997     1 
14995 14998     1 
14995 14999     1 
14996 15003     1 
14996 15004     1 
14996 15005     1 
14997 15000     1 
14997 15001     1 
14997 15002     1 
14998 15000     1 
14998 15001     1 
14998 15002     1 
14999 15006     1 
14999 15007     1 
14999 15008     1 
15000 15003     1 
15000 15004     1 
15000 15005     1 
15001 15003     1 
15001 15004     1 
15001 15005     1 
15003 15006     1 
15003 15007     1 
15003 15008     1 
15004 15006     1 
15004 15007     1 
15004 15008     1 
15009 15026     1 
15009 15027     1 
15009 15031     1 
15010 15014     1 
15010 15015     1 
15010 15016     1 
15010 15018     1 
15010 15019     1 
15010 15020     1 
15010 15022     1 
15010 15023     1 
15010 15024     1 
15010 15028     1 
15011 15013     1 
15011 15017     1 
15011 15021     1 
15011 15026     1 
15011 15027     1 
15011 15031     1 
15012 15013     1 
15012 15017     1 
15012 15021     1 
15012 15026     1 
15012 15027     1 
15012 15031     1 
15013 15018     1 
15013 15019     1 
15013 15020     1 
15013 15022     1 
15013 15023     1 
15013 15024     1 
15013 15025     1 
15014 15017     1 
15014 15021     1 
15015 15017     1 
15015 15021     1 
15016 15017     1 
15016 15021     1 
15017 15022     1 
15017 15023     1 
15017 15024     1 
15017 15025     1 
15018 15021     1 
15019 15021     1 
15020 15021     1 
15021 15025     1 
15025 15029     1 
15025 15030     1 
15025 15032     1 
15026 15028     1 
15027 15028     1 
15028 15034     1 
15028 15035     1 
15028 15036     1 
15029 15033     1 
15030 15033     1 
15031 15033     1 
15032 15037     1 
15032 15038     1 
15032 15044     1 
15033 15039     1 
15033 15045     1 
15033 15046     1 
15033 15047     1 
15034 15037     1 
15034 15038     1 
15034 15044     1 
15035 15037     1 
15035 15038     1 
15035 15044     1 
15036 15040     1 
15036 15041     1 
15036 15048     1 
15037 15039     1 
15037 15045     1 
15037 15046     1 
15037 15047     1 
15038 15042     1 
15038 15043     1 
15038 15045     1 
15038 15046     1 
15038 15047     1 
15038 15053     1 
15039 15044     1 
15039 15054     1 
15039 15055     1 
15039 15056     1 
15040 15042     1 
15040 15043     1 
15040 15053     1 
15041 15057     1 
15041 15058     1 
15041 15059     1 
15042 15054     1 
15042 15055     1 
15042 15056     1 
15043 15054     1 
15043 15055     1 
15043 15056     1 
15044 15049     1 
15044 15050     1 
15045 15048     1 
15046 15048     1 
15047 15051     1 
15047 15052     1 
15047 15100     1 
15048 15101     1 
15048 15102     1 
15048 15103     1 
15049 15051     1 
15049 15052     1 
15049 15100     1 
15050 15104     1 
15050 15105     1 
15050 15106     1 
15051 15101     1 
15051 15102     1 
15051 15103     1 
15052 15101     1 
15052 15102     1 
15052 15103     1 
15053 15060     1 
15053 15061     1 
15053 15062     1 
15054 15057     1 
15054 15058     1 
15054 15059     1 
15055 15057     1 
15055 15058     1 
15055 15059     1 
15056 15063     1 
15056 15064     1 
15056 15065     1 
15057 15060     1 
15057 15061     1 
15057 15062     1 
15058 15060     1 
15058 15061     1 
15058 15062     1 
15059 15066     1 
15059 15067     1 
15059 15068     1 
15060 15063     1 
15060 15064     1 
15060 15065     1 
15061 15063     1 
15061 15064     1 
15061 15065     1 
15062 15069     1 
15062 15070     1 
15062 15071     1 
15063 15066     1 
15063 15067     1 
15063 15068     1 
15064 15066     1 
15064 15067     1 
15064 15068     1 
15065 15072     1 
15065 15073     1 
15066 15069     1 
15066 15070     1 
15066 15071     1 
15067 15069     1 
15067 15070     1 
15067 15071     1 
15068 15074     1 
15068 15075     1 
15069 15072     1 
15069 15073     1 
15070 15072     1 
15070 15073     1 
15071 15076     1 
15071 15077     1 
15071 15078     1 
15072 15074     1 
15072 15075     1 
15073 15079     1 
15073 15080     1 
15073 15081     1 
15074 15076     1 
15074 15077     1 
15074 15078     1 
15075 15082     1 
15075 15083     1 
15075 15084     1 
15076 15079     1 
15076 15080     1 
15076 15081     1 
15077 15079     1 
15077 15080     1 
15077 15081     1 
15078 15085     1 
15078 15086     1 
15078 15087     1 
15079 15082     1 
15079 15083     1 
15079 15084     1 
15080 15082     1 
15080 15083     1 
15080 15084     1 
15081 15088     1 
15081 15089     1 
15081 15090     1 
15082 15085     1 
15082 15086     1 
15082 15087     1 
15083 15085     1 
15083 15086     1 
15083 15087     1 
15084 15091     1 
15084 15092     1 
15084 15093     1 
15085 15088     1 
15085 15089     1 
15085 15090     1 
15086 15088     1 
15086 15089     1 
15086 15090     1 
15087 15094     1 
15087 15095     1 
15087 15096     1 
15088 15091     1 
15088 15092     1 
15088 15093     1 
15089 15091     1 
15089 15092     1 
15089 15093     1 
15090 15097     1 
15090 15098     1 
15090 15099     1 
15091 15094     1 
15091 15095     1 
15091 15096     1 
15092 15094     1 
15092 15095     1 
15092 15096     1 
15094 15097     1 
15094 15098     1 
15094 15099     1 
15095 15097     1 
15095 15098     1 
15095 15099     1 
15100 15107     1 
15100 15108     1 
15100 15109     1 
15101 15104     1 
15101 15105     1 
15101 15106     1 
15102 15104     1 
15102 15105     1 
15102 15106     1 
15103 15110     1 
15103 15111     1 
15103 15112     1 
15104 15107     1 
15104 15108     1 
15104 15109     1 
15105 15107     1 
15105 15108     1 
15105 15109     1 
15106 15113     1 
15106 15114     1 
15106 15115     1 
15107 15110     1 
15107 15111     1 
15107 15112     1 
15108 15110     1 
15108 15111     1 
15108 15112     1 
15109 15116     1 
15109 15117     1 
15109 15118     1 
15110 15113     1 
15110 15114     1 
15110 15115     1 
15111 15113     1 
15111 15114     1 
15111 15115     1 
15112 15119     1 
15112 15120     1 
15112 15121     1 
15113 15116     1 
15113 15117     1 
15113 15118     1 
15114 15116     1 
15114 15117     1 
15114 15118     1 
15115 15122     1 
15115 15123     1 
15115 15124     1 
15116 15119     1 
15116 15120     1 
15116 15121     1 
15117 15119     1 
15117 15120     1 
15117 15121     1 
15118 15125     1 
15118 15126     1 
15118 15127     1 
15119 15122     1 
15119 15123     1 
15119 15124     1 
15120 15122     1 
15120 15123     1 
15120 15124     1 
15121 15128     1 
15121 15129     1 
15121 15130     1 
15122 15125     1 
15122 15126     1 
15122 15127     1 
15123 15125     1 
15123 15126     1 
15123 15127     1 
15124 15131     1 
15124 15132     1 
15124 15133     1 
15125 15128     1 
15125 15129     1 
15125 15130     1 
15126 15128     1 
15126 15129     1 
15126 15130     1 
15127 15134     1 
15127 15135     1 
15127 15136     1 
15128 15131     1 
15128 15132     1 
15128 15133     1 
15129 15131     1 
15129 15132     1 
15129 15133     1 
15130 15137     1 
15130 15138     1 
15130 15139     1 
15131 15134     1 
15131 15135     1 
15131 15136     1 
15132 15134     1 
15132 15135     1 
15132 15136     1 
15133 15140     1 
15133 15141     1 
15133 15142     1 
15134 15137     1 
15134 15138     1 
15134 15139     1 
15135 15137     1 
15135 15138     1 
15135 15139     1 
15137 15140     1 
15137 15141     1 
15137 15142     1 
15138 15140     1 
15138 15141     1 
15138 15142     1 
15143 15160     1 
15143 15161     1 
15143 15165     1 
15144 15148     1 
15144 15149     1 
15144 15150     1 
15144 15152     1 
15144 15153     1 
15144 15154     1 
15144 15156     1 
15144 15157     1 
15144 15158     1 
15144 15162     1 
15145 15147     1 
15145 15151     1 
15145 15155     1 
15145 15160     1 
15145 15161     1 
15145 15165     1 
15146 15147     1 
15146 15151     1 
15146 15155     1 
15146 15160     1 
15146 15161     1 
15146 15165     1 
15147 15152     1 
15147 15153     1 
15147 15154     1 
15147 15156     1 
15147 15157     1 
15147 15158     1 
15147 15159     1 
15148 15151     1 
15148 15155     1 
15149 15151     1 
15149 15155     1 
15150 15151     1 
15150 15155     1 
15151 15156     1 
15151 15157     1 
15151 15158     1 
15151 15159     1 
15152 15155     1 
15153 15155     1 
15154 15155     1 
15155 15159     1 
15159 15163     1 
15159 15164     1 
15159 15166     1 
15160 15162     1 
15161 15162     1 
15162 15168     1 
15162 15169     1 
15162 15170     1 
15163 15167     1 
15164 15167     1 
15165 15167     1 
15166 15171     1 
15166 15172     1 
15166 15178     1 
15167 15173     1 
15167 15179     1 
15167 15180     1 
15167 15181     1 
15168 15171     1 
15168 15172     1 
15168 15178     1 
15169 15171     1 
15169 15172     1 
15169 15178     1 
15170 15174     1 
15170 15175     1 
15170 15182     1 
15171 15173     1 
15171 15179     1 
15171 15180     1 
15171 15181     1 
15172 15176     1 
15172 15177     1 
15172 15179     1 
15172 15180     1 
15172 15181     1 
15172 15187     1 
15173 15178     1 
15173 15188     1 
15173 15189     1 
15173 15190     1 
15174 15176     1 
15174 15177     1 
15174 15187     1 
15175 15191     1 
15175 15192     1 
15175 15193     1 
15176 15188     1 
15176 15189     1 
15176 15190     1 
15177 15188     1 
15177 15189     1 
15177 15190     1 
15178 15183     1 
15178 15184     1 
15179 15182     1 
15180 15182     1 
15181 15185     1 
15181 15186     1 
15181 15234     1 
15182 15235     1 
15182 15236     1 
15182 15237     1 
15183 15185     1 
15183 15186     1 
15183 15234     1 
15184 15238     1 
15184 15239     1 
15184 15240     1 
15185 15235     1 
15185 15236     1 
15185 15237     1 
15186 15235     1 
15186 15236     1 
15186 15237     1 
15187 15194     1 
15187 15195     1 
15187 15196     1 
15188 15191     1 
15188 15192     1 
15188 15193     1 
15189 15191     1 
15189 15192     1 
15189 15193     1 
15190 15197     1 
15190 15198     1 
15190 15199     1 
15191 15194     1 
15191 15195     1 
15191 15196     1 
15192 15194     1 
15192 15195     1 
15192 15196     1 
15193 15200     1 
15193 15201     1 
15193 15202     1 
15194 15197     1 
15194 15198     1 
15194 15199     1 
15195 15197     1 
15195 15198     1 
15195 15199     1 
15196 15203     1 
15196 15204     1 
15196 15205     1 
15197 15200     1 
15197 15201     1 
15197 15202     1 
15198 15200     1 
15198 15201     1 
15198 15202     1 
15199 15206     1 
15199 15207     1 
15200 15203     1 
15200 15204     1 
15200 15205     1 
15201 15203     1 
15201 15204     1 
15201 15205     1 
15202 15208     1 
15202 15209     1 
15203 15206     1 
15203 15207     1 
15204 15206     1 
15204 15207     1 
15205 15210     1 
15205 15211     1 
15205 15212     1 
15206 15208     1 
15206 15209     1 
15207 15213     1 
15207 15214     1 
15207 15215     1 
15208 15210     1 
15208 15211     1 
15208 15212     1 
15209 15216     1 
15209 15217     1 
15209 15218     1 
15210 15213     1 
15210 15214     1 
15210 15215     1 
15211 15213     1 
15211 15214     1 
15211 15215     1 
15212 15219     1 
15212 15220     1 
15212 15221     1 
15213 15216     1 
15213 15217     1 
15213 15218     1 
15214 15216     1 
15214 15217     1 
15214 15218     1 
15215 15222     1 
15215 15223     1 
15215 15224     1 
15216 15219     1 
15216 15220     1 
15216 15221     1 
15217 15219     1 
15217 15220     1 
15217 15221     1 
15218 15225     1 
15218 15226     1 
15218 15227     1 
15219 15222     1 
15219 15223     1 
15219 15224     1 
15220 15222     1 
15220 15223     1 
15220 15224     1 
15221 15228     1 
15221 15229     1 
15221 15230     1 
15222 15225     1 
15222 15226     1 
15222 15227     1 
15223 15225     1 
15223 15226     1 
15223 15227     1 
15224 15231     1 
15224 15232     1 
15224 15233     1 
15225 15228     1 
15225 15229     1 
15225 15230     1 
15226 15228     1 
15226 15229     1 
15226 15230     1 
15228 15231     1 
15228 15232     1 
15228 15233     1 
15229 15231     1 
15229 15232     1 
15229 15233     1 
15234 15241     1 
15234 15242     1 
15234 15243     1 
15235 15238     1 
15235 15239     1 
15235 15240     1 
15236 15238     1 
15236 15239     1 
15236 15240     1 
15237 15244     1 
15237 15245     1 
15237 15246     1 
15238 15241     1 
15238 15242     1 
15238 15243     1 
15239 15241     1 
15239 15242     1 
15239 15243     1 
15240 15247     1 
15240 15248     1 
15240 15249     1 
15241 15244     1 
15241 15245     1 
15241 15246     1 
15242 15244     1 
15242 15245     1 
15242 15246     1 
15243 15250     1 
15243 15251     1 
15243 15252     1 
15244 15247     1 
15244 15248     1 
15244 15249     1 
15245 15247     1 
15245 15248     1 
15245 15249     1 
15246 15253     1 
15246 15254     1 
15246 15255     1 
15247 15250     1 
15247 15251     1 
15247 15252     1 
15248 15250     1 
15248 15251     1 
15248 15252     1 
15249 15256     1 
15249 15257     1 
15249 15258     1 
15250 15253     1 
15250 15254     1 
15250 15255     1 
15251 15253     1 
15251 15254     1 
15251 15255     1 
15252 15259     1 
15252 15260     1 
15252 15261     1 
15253 15256     1 
15253 15257     1 
15253 15258     1 
15254 15256     1 
15254 15257     1 
15254 15258     1 
15255 15262     1 
15255 15263     1 
15255 15264     1 
15256 15259     1 
15256 15260     1 
15256 15261     1 
15257 15259     1 
15257 15260     1 
15257 15261     1 
15258 15265     1 
15258 15266     1 
15258 15267     1 
15259 15262     1 
15259 15263     1 
15259 15264     1 
15260 15262     1 
15260 15263     1 
15260 15264     1 
15261 15268     1 
15261 15269     1 
15261 15270     1 
15262 15265     1 
15262 15266     1 
15262 15267     1 
15263 15265     1 
15263 15266     1 
15263 15267     1 
15264 15271     1 
15264 15272     1 
15264 15273     1 
15265 15268     1 
15265 15269     1 
15265 15270     1 
15266 15268     1 
15266 15269     1 
15266 15270     1 
15267 15274     1 
15267 15275     1 
15267 15276     1 
15268 15271     1 
15268 15272     1 
15268 15273     1 
15269 15271     1 
15269 15272     1 
15269 15273     1 
15271 15274     1 
15271 15275     1 
15271 15276     1 
15272 15274     1 
15272 15275     1 
15272 15276     1 
15277 15294     1 
15277 15295     1 
15277 15299     1 
15278 15282     1 
15278 15283     1 
15278 15284     1 
15278 15286     1 
15278 15287     1 
15278 15288     1 
15278 15290     1 
15278 15291     1 
15278 15292     1 
15278 15296     1 
15279 15281     1 
15279 15285     1 
15279 15289     1 
15279 15294     1 
15279 15295     1 
15279 15299     1 
15280 15281     1 
15280 15285     1 
15280 15289     1 
15280 15294     1 
15280 15295     1 
15280 15299     1 
15281 15286     1 
15281 15287     1 
15281 15288     1 
15281 15290     1 
15281 15291     1 
15281 15292     1 
15281 15293     1 
15282 15285     1 
15282 15289     1 
15283 15285     1 
15283 15289     1 
15284 15285     1 
15284 15289     1 
15285 15290     1 
15285 15291     1 
15285 15292     1 
15285 15293     1 
15286 15289     1 
15287 15289     1 
15288 15289     1 
15289 15293     1 
15293 15297     1 
15293 15298     1 
15293 15300     1 
15294 15296     1 
15295 15296     1 
15296 15302     1 
15296 15303     1 
15296 15304     1 
15297 15301     1 
15298 15301     1 
15299 15301     1 
15300 15305     1 
15300 15306     1 
15300 15312     1 
15301 15307     1 
15301 15313     1 
15301 15314     1 
15301 15315     1 
15302 15305     1 
15302 15306     1 
15302 15312     1 
15303 15305     1 
15303 15306     1 
15303 15312     1 
15304 15308     1 
15304 15309     1 
15304 15316     1 
15305 15307     1 
15305 15313     1 
15305 15314     1 
15305 15315     1 
15306 15310     1 
15306 15311     1 
15306 15313     1 
15306 15314     1 
15306 15315     1 
15306 15321     1 
15307 15312     1 
15307 15322     1 
15307 15323     1 
15307 15324     1 
15308 15310     1 
15308 15311     1 
15308 15321     1 
15309 15325     1 
15309 15326     1 
15309 15327     1 
15310 15322     1 
15310 15323     1 
15310 15324     1 
15311 15322     1 
15311 15323     1 
15311 15324     1 
15312 15317     1 
15312 15318     1 
15313 15316     1 
15314 15316     1 
15315 15319     1 
15315 15320     1 
15315 15368     1 
15316 15369     1 
15316 15370     1 
15316 15371     1 
15317 15319     1 
15317 15320     1 
15317 15368     1 
15318 15372     1 
15318 15373     1 
15318 15374     1 
15319 15369     1 
15319 15370     1 
15319 15371     1 
15320 15369     1 
15320 15370     1 
15320 15371     1 
15321 15328     1 
15321 15329     1 
15321 15330     1 
15322 15325     1 
15322 15326     1 
15322 15327     1 
15323 15325     1 
15323 15326     1 
15323 15327     1 
15324 15331     1 
15324 15332     1 
15324 15333     1 
15325 15328     1 
15325 15329     1 
15325 15330     1 
15326 15328     1 
15326 15329     1 
15326 15330     1 
15327 15334     1 
15327 15335     1 
15327 15336     1 
15328 15331     1 
15328 15332     1 
15328 15333     1 
15329 15331     1 
15329 15332     1 
15329 15333     1 
15330 15337     1 
15330 15338     1 
15330 15339     1 
15331 15334     1 
15331 15335     1 
15331 15336     1 
15332 15334     1 
15332 15335     1 
15332 15336     1 
15333 15340     1 
15333 15341     1 
15334 15337     1 
15334 15338     1 
15334 15339     1 
15335 15337     1 
15335 15338     1 
15335 15339     1 
15336 15342     1 
15336 15343     1 
15337 15340     1 
15337 15341     1 
15338 15340     1 
15338 15341     1 
15339 15344     1 
15339 15345     1 
15339 15346     1 
15340 15342     1 
15340 15343     1 
15341 15347     1 
15341 15348     1 
15341 15349     1 
15342 15344     1 
15342 15345     1 
15342 15346     1 
15343 15350     1 
15343 15351     1 
15343 15352     1 
15344 15347     1 
15344 15348     1 
15344 15349     1 
15345 15347     1 
15345 15348     1 
15345 15349     1 
15346 15353     1 
15346 15354     1 
15346 15355     1 
15347 15350     1 
15347 15351     1 
15347 15352     1 
15348 15350     1 
15348 15351     1 
15348 15352     1 
15349 15356     1 
15349 15357     1 
15349 15358     1 
15350 15353     1 
15350 15354     1 
15350 15355     1 
15351 15353     1 
15351 15354     1 
15351 15355     1 
15352 15359     1 
15352 15360     1 
15352 15361     1 
15353 15356     1 
15353 15357     1 
15353 15358     1 
15354 15356     1 
15354 15357     1 
15354 15358     1 
15355 15362     1 
15355 15363     1 
15355 15364     1 
15356 15359     1 
15356 15360     1 
15356 15361     1 
15357 15359     1 
15357 15360     1 
15357 15361     1 
15358 15365     1 
15358 15366     1 
15358 15367     1 
15359 15362     1 
15359 15363     1 
15359 15364     1 
15360 15362     1 
15360 15363     1 
15360 15364     1 
15362 15365     1 
15362 15366     1 
15362 15367     1 
15363 15365     1 
15363 15366     1 
15363 15367     1 
15368 15375     1 
15368 15376     1 
15368 15377     1 
15369 15372     1 
15369 15373     1 
15369 15374     1 
15370 15372     1 
15370 15373     1 
15370 15374     1 
15371 15378     1 
15371 15379     1 
15371 15380     1 
15372 15375     1 
15372 15376     1 
15372 15377     1 
15373 15375     1 
15373 15376     1 
15373 15377     1 
15374 15381     1 
15374 15382     1 
15374 15383     1 
15375 15378     1 
15375 15379     1 
15375 15380     1 
15376 15378     1 
15376 15379     1 
15376 15380     1 
15377 15384     1 
15377 15385     1 
15377 15386     1 
15378 15381     1 
15378 15382     1 
15378 15383     1 
15379 15381     1 
15379 15382     1 
15379 15383     1 
15380 15387     1 
15380 15388     1 
15380 15389     1 
15381 15384     1 
15381 15385     1 
15381 15386     1 
15382 15384     1 
15382 15385     1 
15382 15386     1 
15383 15390     1 
15383 15391     1 
15383 15392     1 
15384 15387     1 
15384 15388     1 
15384 15389     1 
15385 15387     1 
15385 15388     1 
15385 15389     1 
15386 15393     1 
15386 15394     1 
15386 15395     1 
15387 15390     1 
15387 15391     1 
15387 15392     1 
15388 15390     1 
15388 15391     1 
15388 15392     1 
15389 15396     1 
15389 15397     1 
15389 15398     1 
15390 15393     1 
15390 15394     1 
15390 15395     1 
15391 15393     1 
15391 15394     1 
15391 15395     1 
15392 15399     1 
15392 15400     1 
15392 15401     1 
15393 15396     1 
15393 15397     1 
15393 15398     1 
15394 15396     1 
15394 15397     1 
15394 15398     1 
15395 15402     1 
15395 15403     1 
15395 15404     1 
15396 15399     1 
15396 15400     1 
15396 15401     1 
15397 15399     1 
15397 15400     1 
15397 15401     1 
15398 15405     1 
15398 15406     1 
15398 15407     1 
15399 15402     1 
15399 15403     1 
15399 15404     1 
15400 15402     1 
15400 15403     1 
15400 15404     1 
15401 15408     1 
15401 15409     1 
15401 15410     1 
15402 15405     1 
15402 15406     1 
15402 15407     1 
15403 15405     1 
15403 15406     1 
15403 15407     1 
15405 15408     1 
15405 15409     1 
15405 15410     1 
15406 15408     1 
15406 15409     1 
15406 15410     1 
15411 15428     1 
15411 15429     1 
15411 15433     1 
15412 15416     1 
15412 15417     1 
15412 15418     1 
15412 15420     1 
15412 15421     1 
15412 15422     1 
15412 15424     1 
15412 15425     1 
15412 15426     1 
15412 15430     1 
15413 15415     1 
15413 15419     1 
15413 15423     1 
15413 15428     1 
15413 15429     1 
15413 15433     1 
15414 15415     1 
15414 15419     1 
15414 15423     1 
15414 15428     1 
15414 15429     1 
15414 15433     1 
15415 15420     1 
15415 15421     1 
15415 15422     1 
15415 15424     1 
15415 15425     1 
15415 15426     1 
15415 15427     1 
15416 15419     1 
15416 15423     1 
15417 15419     1 
15417 15423     1 
15418 15419     1 
15418 15423     1 
15419 15424     1 
15419 15425     1 
15419 15426     1 
15419 15427     1 
15420 15423     1 
15421 15423     1 
15422 15423     1 
15423 15427     1 
15427 15431     1 
15427 15432     1 
15427 15434     1 
15428 15430     1 
15429 15430     1 
15430 15436     1 
15430 15437     1 
15430 15438     1 
15431 15435     1 
15432 15435     1 
15433 15435     1 
15434 15439     1 
15434 15440     1 
15434 15446     1 
15435 15441     1 
15435 15447     1 
15435 15448     1 
15435 15449     1 
15436 15439     1 
15436 15440     1 
15436 15446     1 
15437 15439     1 
15437 15440     1 
15437 15446     1 
15438 15442     1 
15438 15443     1 
15438 15450     1 
15439 15441     1 
15439 15447     1 
15439 15448     1 
15439 15449     1 
15440 15444     1 
15440 15445     1 
15440 15447     1 
15440 15448     1 
15440 15449     1 
15440 15455     1 
15441 15446     1 
15441 15456     1 
15441 15457     1 
15441 15458     1 
15442 15444     1 
15442 15445     1 
15442 15455     1 
15443 15459     1 
15443 15460     1 
15443 15461     1 
15444 15456     1 
15444 15457     1 
15444 15458     1 
15445 15456     1 
15445 15457     1 
15445 15458     1 
15446 15451     1 
15446 15452     1 
15447 15450     1 
15448 15450     1 
15449 15453     1 
15449 15454     1 
15449 15502     1 
15450 15503     1 
15450 15504     1 
15450 15505     1 
15451 15453     1 
15451 15454     1 
15451 15502     1 
15452 15506     1 
15452 15507     1 
15452 15508     1 
15453 15503     1 
15453 15504     1 
15453 15505     1 
15454 15503     1 
15454 15504     1 
15454 15505     1 
15455 15462     1 
15455 15463     1 
15455 15464     1 
15456 15459     1 
15456 15460     1 
15456 15461     1 
15457 15459     1 
15457 15460     1 
15457 15461     1 
15458 15465     1 
15458 15466     1 
15458 15467     1 
15459 15462     1 
15459 15463     1 
15459 15464     1 
15460 15462     1 
15460 15463     1 
15460 15464     1 
15461 15468     1 
15461 15469     1 
15461 15470     1 
15462 15465     1 
15462 15466     1 
15462 15467     1 
15463 15465     1 
15463 15466     1 
15463 15467     1 
15464 15471     1 
15464 15472     1 
15464 15473     1 
15465 15468     1 
15465 15469     1 
15465 15470     1 
15466 15468     1 
15466 15469     1 
15466 15470     1 
15467 15474     1 
15467 15475     1 
15468 15471     1 
15468 15472     1 
15468 15473     1 
15469 15471     1 
15469 15472     1 
15469 15473     1 
15470 15476     1 
15470 15477     1 
15471 15474     1 
15471 15475     1 
15472 15474     1 
15472 15475     1 
15473 15478     1 
15473 15479     1 
15473 15480     1 
15474 15476     1 
15474 15477     1 
15475 15481     1 
15475 15482     1 
15475 15483     1 
15476 15478     1 
15476 15479     1 
15476 15480     1 
15477 15484     1 
15477 15485     1 
15477 15486     1 
15478 15481     1 
15478 15482     1 
15478 15483     1 
15479 15481     1 
15479 15482     1 
15479 15483     1 
15480 15487     1 
15480 15488     1 
15480 15489     1 
15481 15484     1 
15481 15485     1 
15481 15486     1 
15482 15484     1 
15482 15485     1 
15482 15486     1 
15483 15490     1 
15483 15491     1 
15483 15492     1 
15484 15487     1 
15484 15488     1 
15484 15489     1 
15485 15487     1 
15485 15488     1 
15485 15489     1 
15486 15493     1 
15486 15494     1 
15486 15495     1 
15487 15490     1 
15487 15491     1 
15487 15492     1 
15488 15490     1 
15488 15491     1 
15488 15492     1 
15489 15496     1 
15489 15497     1 
15489 15498     1 
15490 15493     1 
15490 15494     1 
15490 15495     1 
15491 15493     1 
15491 15494     1 
15491 15495     1 
15492 15499     1 
15492 15500     1 
15492 15501     1 
15493 15496     1 
15493 15497     1 
15493 15498     1 
15494 15496     1 
15494 15497     1 
15494 15498     1 
15496 15499     1 
15496 15500     1 
15496 15501     1 
15497 15499     1 
15497 15500     1 
15497 15501     1 
15502 15509     1 
15502 15510     1 
15502 15511     1 
15503 15506     1 
15503 15507     1 
15503 15508     1 
15504 15506     1 
15504 15507     1 
15504 15508     1 
15505 15512     1 
15505 15513     1 
15505 15514     1 
15506 15509     1 
15506 15510     1 
15506 15511     1 
15507 15509     1 
15507 15510     1 
15507 15511     1 
15508 15515     1 
15508 15516     1 
15508 15517     1 
15509 15512     1 
15509 15513     1 
15509 15514     1 
15510 15512     1 
15510 15513     1 
15510 15514     1 
15511 15518     1 
15511 15519     1 
15511 15520     1 
15512 15515     1 
15512 15516     1 
15512 15517     1 
15513 15515     1 
15513 15516     1 
15513 15517     1 
15514 15521     1 
15514 15522     1 
15514 15523     1 
15515 15518     1 
15515 15519     1 
15515 15520     1 
15516 15518     1 
15516 15519     1 
15516 15520     1 
15517 15524     1 
15517 15525     1 
15517 15526     1 
15518 15521     1 
15518 15522     1 
15518 15523     1 
15519 15521     1 
15519 15522     1 
15519 15523     1 
15520 15527     1 
15520 15528     1 
15520 15529     1 
15521 15524     1 
15521 15525     1 
15521 15526     1 
15522 15524     1 
15522 15525     1 
15522 15526     1 
15523 15530     1 
15523 15531     1 
15523 15532     1 
15524 15527     1 
15524 15528     1 
15524 15529     1 
15525 15527     1 
15525 15528     1 
15525 15529     1 
15526 15533     1 
15526 15534     1 
15526 15535     1 
15527 15530     1 
15527 15531     1 
15527 15532     1 
15528 15530     1 
15528 15531     1 
15528 15532     1 
15529 15536     1 
15529 15537     1 
15529 15538     1 
15530 15533     1 
15530 15534     1 
15530 15535     1 
15531 15533     1 
15531 15534     1 
15531 15535     1 
15532 15539     1 
15532 15540     1 
15532 15541     1 
15533 15536     1 
15533 15537     1 
15533 15538     1 
15534 15536     1 
15534 15537     1 
15534 15538     1 
15535 15542     1 
15535 15543     1 
15535 15544     1 
15536 15539     1 
15536 15540     1 
15536 15541     1 
15537 15539     1 
15537 15540     1 
15537 15541     1 
15539 15542     1 
15539 15543     1 
15539 15544     1 
15540 15542     1 
15540 15543     1 
15540 15544     1 
15545 15562     1 
15545 15563     1 
15545 15567     1 
15546 15550     1 
15546 15551     1 
15546 15552     1 
15546 15554     1 
15546 15555     1 
15546 15556     1 
15546 15558     1 
15546 15559     1 
15546 15560     1 
15546 15564     1 
15547 15549     1 
15547 15553     1 
15547 15557     1 
15547 15562     1 
15547 15563     1 
15547 15567     1 
15548 15549     1 
15548 15553     1 
15548 15557     1 
15548 15562     1 
15548 15563     1 
15548 15567     1 
15549 15554     1 
15549 15555     1 
15549 15556     1 
15549 15558     1 
15549 15559     1 
15549 15560     1 
15549 15561     1 
15550 15553     1 
15550 15557     1 
15551 15553     1 
15551 15557     1 
15552 15553     1 
15552 15557     1 
15553 15558     1 
15553 15559     1 
15553 15560     1 
15553 15561     1 
15554 15557     1 
15555 15557     1 
15556 15557     1 
15557 15561     1 
15561 15565     1 
15561 15566     1 
15561 15568     1 
15562 15564     1 
15563 15564     1 
15564 15570     1 
15564 15571     1 
15564 15572     1 
15565 15569     1 
15566 15569     1 
15567 15569     1 
15568 15573     1 
15568 15574     1 
15568 15580     1 
15569 15575     1 
15569 15581     1 
15569 15582     1 
15569 15583     1 
15570 15573     1 
15570 15574     1 
15570 15580     1 
15571 15573     1 
15571 15574     1 
15571 15580     1 
15572 15576     1 
15572 15577     1 
15572 15584     1 
15573 15575     1 
15573 15581     1 
15573 15582     1 
15573 15583     1 
15574 15578     1 
15574 15579     1 
15574 15581     1 
15574 15582     1 
15574 15583     1 
15574 15589     1 
15575 15580     1 
15575 15590     1 
15575 15591     1 
15575 15592     1 
15576 15578     1 
15576 15579     1 
15576 15589     1 
15577 15593     1 
15577 15594     1 
15577 15595     1 
15578 15590     1 
15578 15591     1 
15578 15592     1 
15579 15590     1 
15579 15591     1 
15579 15592     1 
15580 15585     1 
15580 15586     1 
15581 15584     1 
15582 15584     1 
15583 15587     1 
15583 15588     1 
15583 15636     1 
15584 15637     1 
15584 15638     1 
15584 15639     1 
15585 15587     1 
15585 15588     1 
15585 15636     1 
15586 15640     1 
15586 15641     1 
15586 15642     1 
15587 15637     1 
15587 15638     1 
15587 15639     1 
15588 15637     1 
15588 15638     1 
15588 15639     1 
15589 15596     1 
15589 15597     1 
15589 15598     1 
15590 15593     1 
15590 15594     1 
15590 15595     1 
15591 15593     1 
15591 15594     1 
15591 15595     1 
15592 15599     1 
15592 15600     1 
15592 15601     1 
15593 15596     1 
15593 15597     1 
15593 15598     1 
15594 15596     1 
15594 15597     1 
15594 15598     1 
15595 15602     1 
15595 15603     1 
15595 15604     1 
15596 15599     1 
15596 15600     1 
15596 15601     1 
15597 15599     1 
15597 15600     1 
15597 15601     1 
15598 15605     1 
15598 15606     1 
15598 15607     1 
15599 15602     1 
15599 15603     1 
15599 15604     1 
15600 15602     1 
15600 15603     1 
15600 15604     1 
15601 15608     1 
15601 15609     1 
15602 15605     1 
15602 15606     1 
15602 15607     1 
15603 15605     1 
15603 15606     1 
15603 15607     1 
15604 15610     1 
15604 15611     1 
15605 15608     1 
15605 15609     1 
15606 15608     1 
15606 15609     1 
15607 15612     1 
15607 15613     1 
15607 15614     1 
15608 15610     1 
15608 15611     1 
15609 15615     1 
15609 15616     1 
15609 15617     1 
15610 15612     1 
15610 15613     1 
15610 15614     1 
15611 15618     1 
15611 15619     1 
15611 15620     1 
15612 15615     1 
15612 15616     1 
15612 15617     1 
15613 15615     1 
15613 15616     1 
15613 15617     1 
15614 15621     1 
15614 15622     1 
15614 15623     1 
15615 15618     1 
15615 15619     1 
15615 15620     1 
15616 15618     1 
15616 15619     1 
15616 15620     1 
15617 15624     1 
15617 15625     1 
15617 15626     1 
15618 15621     1 
15618 15622     1 
15618 15623     1 
15619 15621     1 
15619 15622     1 
15619 15623     1 
15620 15627     1 
15620 15628     1 
15620 15629     1 
15621 15624     1 
15621 15625     1 
15621 15626     1 
15622 15624     1 
15622 15625     1 
15622 15626     1 
15623 15630     1 
15623 15631     1 
15623 15632     1 
15624 15627     1 
15624 15628     1 
15624 15629     1 
15625 15627     1 
15625 15628     1 
15625 15629     1 
15626 15633     1 
15626 15634     1 
15626 15635     1 
15627 15630     1 
15627 15631     1 
15627 15632     1 
15628 15630     1 
15628 15631     1 
15628 15632     1 
15630 15633     1 
15630 15634     1 
15630 15635     1 
15631 15633     1 
15631 15634     1 
15631 15635     1 
15636 15643     1 
15636 15644     1 
15636 15645     1 
15637 15640     1 
15637 15641     1 
15637 15642     1 
15638 15640     1 
15638 15641     1 
15638 15642     1 
15639 15646     1 
15639 15647     1 
15639 15648     1 
15640 15643     1 
15640 15644     1 
15640 15645     1 
15641 15643     1 
15641 15644     1 
15641 15645     1 
15642 15649     1 
15642 15650     1 
15642 15651     1 
15643 15646     1 
15643 15647     1 
15643 15648     1 
15644 15646     1 
15644 15647     1 
15644 15648     1 
15645 15652     1 
15645 15653     1 
15645 15654     1 
15646 15649     1 
15646 15650     1 
15646 15651     1 
15647 15649     1 
15647 15650     1 
15647 15651     1 
15648 15655     1 
15648 15656     1 
15648 15657     1 
15649 15652     1 
15649 15653     1 
15649 15654     1 
15650 15652     1 
15650 15653     1 
15650 15654     1 
15651 15658     1 
15651 15659     1 
15651 15660     1 
15652 15655     1 
15652 15656     1 
15652 15657     1 
15653 15655     1 
15653 15656     1 
15653 15657     1 
15654 15661     1 
15654 15662     1 
15654 15663     1 
15655 15658     1 
15655 15659     1 
15655 15660     1 
15656 15658     1 
15656 15659     1 
15656 15660     1 
15657 15664     1 
15657 15665     1 
15657 15666     1 
15658 15661     1 
15658 15662     1 
15658 15663     1 
15659 15661     1 
15659 15662     1 
15659 15663     1 
15660 15667     1 
15660 15668     1 
15660 15669     1 
15661 15664     1 
15661 15665     1 
15661 15666     1 
15662 15664     1 
15662 15665     1 
15662 15666     1 
15663 15670     1 
15663 15671     1 
15663 15672     1 
15664 15667     1 
15664 15668     1 
15664 15669     1 
15665 15667     1 
15665 15668     1 
15665 15669     1 
15666 15673     1 
15666 15674     1 
15666 15675     1 
15667 15670     1 
15667 15671     1 
15667 15672     1 
15668 15670     1 
15668 15671     1 
15668 15672     1 
15669 15676     1 
15669 15677     1 
15669 15678     1 
15670 15673     1 
15670 15674     1 
15670 15675     1 
15671 15673     1 
15671 15674     1 
15671 15675     1 
15673 15676     1 
15673 15677     1 
15673 15678     1 
15674 15676     1 
15674 15677     1 
15674 15678     1 
15679 15696     1 
15679 15697     1 
15679 15701     1 
15680 15684     1 
15680 15685     1 
15680 15686     1 
15680 15688     1 
15680 15689     1 
15680 15690     1 
15680 15692     1 
15680 15693     1 
15680 15694     1 
15680 15698     1 
15681 15683     1 
15681 15687     1 
15681 15691     1 
15681 15696     1 
15681 15697     1 
15681 15701     1 
15682 15683     1 
15682 15687     1 
15682 15691     1 
15682 15696     1 
15682 15697     1 
15682 15701     1 
15683 15688     1 
15683 15689     1 
15683 15690     1 
15683 15692     1 
15683 15693     1 
15683 15694     1 
15683 15695     1 
15684 15687     1 
15684 15691     1 
15685 15687     1 
15685 15691     1 
15686 15687     1 
15686 15691     1 
15687 15692     1 
15687 15693     1 
15687 15694     1 
15687 15695     1 
15688 15691     1 
15689 15691     1 
15690 15691     1 
15691 15695     1 
15695 15699     1 
15695 15700     1 
15695 15702     1 
15696 15698     1 
15697 15698     1 
15698 15704     1 
15698 15705     1 
15698 15706     1 
15699 15703     1 
15700 15703     1 
15701 15703     1 
15702 15707     1 
15702 15708     1 
15702 15714     1 
15703 15709     1 
15703 15715     1 
15703 15716     1 
15703 15717     1 
15704 15707     1 
15704 15708     1 
15704 15714     1 
15705 15707     1 
15705 15708     1 
15705 15714     1 
15706 15710     1 
15706 15711     1 
15706 15718     1 
15707 15709     1 
15707 15715     1 
15707 15716     1 
15707 15717     1 
15708 15712     1 
15708 15713     1 
15708 15715     1 
15708 15716     1 
15708 15717     1 
15708 15723     1 
15709 15714     1 
15709 15724     1 
15709 15725     1 
15709 15726     1 
15710 15712     1 
15710 15713     1 
15710 15723     1 
15711 15727     1 
15711 15728     1 
15711 15729     1 
15712 15724     1 
15712 15725     1 
15712 15726     1 
15713 15724     1 
15713 15725     1 
15713 15726     1 
15714 15719     1 
15714 15720     1 
15715 15718     1 
15716 15718     1 
15717 15721     1 
15717 15722     1 
15717 15770     1 
15718 15771     1 
15718 15772     1 
15718 15773     1 
15719 15721     1 
15719 15722     1 
15719 15770     1 
15720 15774     1 
15720 15775     1 
15720 15776     1 
15721 15771     1 
15721 15772     1 
15721 15773     1 
15722 15771     1 
15722 15772     1 
15722 15773     1 
15723 15730     1 
15723 15731     1 
15723 15732     1 
15724 15727     1 
15724 15728     1 
15724 15729     1 
15725 15727     1 
15725 15728     1 
15725 15729     1 
15726 15733     1 
15726 15734     1 
15726 15735     1 
15727 15730     1 
15727 15731     1 
15727 15732     1 
15728 15730     1 
15728 15731     1 
15728 15732     1 
15729 15736     1 
15729 15737     1 
15729 15738     1 
15730 15733     1 
15730 15734     1 
15730 15735     1 
15731 15733     1 
15731 15734     1 
15731 15735     1 
15732 15739     1 
15732 15740     1 
15732 15741     1 
15733 15736     1 
15733 15737     1 
15733 15738     1 
15734 15736     1 
15734 15737     1 
15734 15738     1 
15735 15742     1 
15735 15743     1 
15736 15739     1 
15736 15740     1 
15736 15741     1 
15737 15739     1 
15737 15740     1 
15737 15741     1 
15738 15744     1 
15738 15745     1 
15739 15742     1 
15739 15743     1 
15740 15742     1 
15740 15743     1 
15741 15746     1 
15741 15747     1 
15741 15748     1 
15742 15744     1 
15742 15745     1 
15743 15749     1 
15743 15750     1 
15743 15751     1 
15744 15746     1 
15744 15747     1 
15744 15748     1 
15745 15752     1 
15745 15753     1 
15745 15754     1 
15746 15749     1 
15746 15750     1 
15746 15751     1 
15747 15749     1 
15747 15750     1 
15747 15751     1 
15748 15755     1 
15748 15756     1 
15748 15757     1 
15749 15752     1 
15749 15753     1 
15749 15754     1 
15750 15752     1 
15750 15753     1 
15750 15754     1 
15751 15758     1 
15751 15759     1 
15751 15760     1 
15752 15755     1 
15752 15756     1 
15752 15757     1 
15753 15755     1 
15753 15756     1 
15753 15757     1 
15754 15761     1 
15754 15762     1 
15754 15763     1 
15755 15758     1 
15755 15759     1 
15755 15760     1 
15756 15758     1 
15756 15759     1 
15756 15760     1 
15757 15764     1 
15757 15765     1 
15757 15766     1 
15758 15761     1 
15758 15762     1 
15758 15763     1 
15759 15761     1 
15759 15762     1 
15759 15763     1 
15760 15767     1 
15760 15768     1 
15760 15769     1 
15761 15764     1 
15761 15765     1 
15761 15766     1 
15762 15764     1 
15762 15765     1 
15762 15766     1 
15764 15767     1 
15764 15768     1 
15764 15769     1 
15765 15767     1 
15765 15768     1 
15765 15769     1 
15770 15777     1 
15770 15778     1 
15770 15779     1 
15771 15774     1 
15771 15775     1 
15771 15776     1 
15772 15774     1 
15772 15775     1 
15772 15776     1 
15773 15780     1 
15773 15781     1 
15773 15782     1 
15774 15777     1 
15774 15778     1 
15774 15779     1 
15775 15777     1 
15775 15778     1 
15775 15779     1 
15776 15783     1 
15776 15784     1 
15776 15785     1 
15777 15780     1 
15777 15781     1 
15777 15782     1 
15778 15780     1 
15778 15781     1 
15778 15782     1 
15779 15786     1 
15779 15787     1 
15779 15788     1 
15780 15783     1 
15780 15784     1 
15780 15785     1 
15781 15783     1 
15781 15784     1 
15781 15785     1 
15782 15789     1 
15782 15790     1 
15782 15791     1 
15783 15786     1 
15783 15787     1 
15783 15788     1 
15784 15786     1 
15784 15787     1 
15784 15788     1 
15785 15792     1 
15785 15793     1 
15785 15794     1 
15786 15789     1 
15786 15790     1 
15786 15791     1 
15787 15789     1 
15787 15790     1 
15787 15791     1 
15788 15795     1 
15788 15796     1 
15788 15797     1 
15789 15792     1 
15789 15793     1 
15789 15794     1 
15790 15792     1 
15790 15793     1 
15790 15794     1 
15791 15798     1 
15791 15799     1 
15791 15800     1 
15792 15795     1 
15792 15796     1 
15792 15797     1 
15793 15795     1 
15793 15796     1 
15793 15797     1 
15794 15801     1 
15794 15802     1 
15794 15803     1 
15795 15798     1 
15795 15799     1 
15795 15800     1 
15796 15798     1 
15796 15799     1 
15796 15800     1 
15797 15804     1 
15797 15805     1 
15797 15806     1 
15798 15801     1 
15798 15802     1 
15798 15803     1 
15799 15801     1 
15799 15802     1 
15799 15803     1 
15800 15807     1 
15800 15808     1 
15800 15809     1 
15801 15804     1 
15801 15805     1 
15801 15806     1 
15802 15804     1 
15802 15805     1 
15802 15806     1 
15803 15810     1 
15803 15811     1 
15803 15812     1 
15804 15807     1 
15804 15808     1 
15804 15809     1 
15805 15807     1 
15805 15808     1 
15805 15809     1 
15807 15810     1 
15807 15811     1 
15807 15812     1 
15808 15810     1 
15808 15811     1 
15808 15812     1 
15813 15830     1 
15813 15831     1 
15813 15835     1 
15814 15818     1 
15814 15819     1 
15814 15820     1 
15814 15822     1 
15814 15823     1 
15814 15824     1 
15814 15826     1 
15814 15827     1 
15814 15828     1 
15814 15832     1 
15815 15817     1 
15815 15821     1 
15815 15825     1 
15815 15830     1 
15815 15831     1 
15815 15835     1 
15816 15817     1 
15816 15821     1 
15816 15825     1 
15816 15830     1 
15816 15831     1 
15816 15835     1 
15817 15822     1 
15817 15823     1 
15817 15824     1 
15817 15826     1 
15817 15827     1 
15817 15828     1 
15817 15829     1 
15818 15821     1 
15818 15825     1 
15819 15821     1 
15819 15825     1 
15820 15821     1 
15820 15825     1 
15821 15826     1 
15821 15827     1 
15821 15828     1 
15821 15829     1 
15822 15825     1 
15823 15825     1 
15824 15825     1 
15825 15829     1 
15829 15833     1 
15829 15834     1 
15829 15836     1 
15830 15832     1 
15831 15832     1 
15832 15838     1 
15832 15839     1 
15832 15840     1 
15833 15837     1 
15834 15837     1 
15835 15837     1 
15836 15841     1 
15836 15842     1 
15836 15848     1 
15837 15843     1 
15837 15849     1 
15837 15850     1 
15837 15851     1 
15838 15841     1 
15838 15842     1 
15838 15848     1 
15839 15841     1 
15839 15842     1 
15839 15848     1 
15840 15844     1 
15840 15845     1 
15840 15852     1 
15841 15843     1 
15841 15849     1 
15841 15850     1 
15841 15851     1 
15842 15846     1 
15842 15847     1 
15842 15849     1 
15842 15850     1 
15842 15851     1 
15842 15857     1 
15843 15848     1 
15843 15858     1 
15843 15859     1 
15843 15860     1 
15844 15846     1 
15844 15847     1 
15844 15857     1 
15845 15861     1 
15845 15862     1 
15845 15863     1 
15846 15858     1 
15846 15859     1 
15846 15860     1 
15847 15858     1 
15847 15859     1 
15847 15860     1 
15848 15853     1 
15848 15854     1 
15849 15852     1 
15850 15852     1 
15851 15855     1 
15851 15856     1 
15851 15904     1 
15852 15905     1 
15852 15906     1 
15852 15907     1 
15853 15855     1 
15853 15856     1 
15853 15904     1 
15854 15908     1 
15854 15909     1 
15854 15910     1 
15855 15905     1 
15855 15906     1 
15855 15907     1 
15856 15905     1 
15856 15906     1 
15856 15907     1 
15857 15864     1 
15857 15865     1 
15857 15866     1 
15858 15861     1 
15858 15862     1 
15858 15863     1 
15859 15861     1 
15859 15862     1 
15859 15863     1 
15860 15867     1 
15860 15868     1 
15860 15869     1 
15861 15864     1 
15861 15865     1 
15861 15866     1 
15862 15864     1 
15862 15865     1 
15862 15866     1 
15863 15870     1 
15863 15871     1 
15863 15872     1 
15864 15867     1 
15864 15868     1 
15864 15869     1 
15865 15867     1 
15865 15868     1 
15865 15869     1 
15866 15873     1 
15866 15874     1 
15866 15875     1 
15867 15870     1 
15867 15871     1 
15867 15872     1 
15868 15870     1 
15868 15871     1 
15868 15872     1 
15869 15876     1 
15869 15877     1 
15870 15873     1 
15870 15874     1 
15870 15875     1 
15871 15873     1 
15871 15874     1 
15871 15875     1 
15872 15878     1 
15872 15879     1 
15873 15876     1 
15873 15877     1 
15874 15876     1 
15874 15877     1 
15875 15880     1 
15875 15881     1 
15875 15882     1 
15876 15878     1 
15876 15879     1 
15877 15883     1 
15877 15884     1 
15877 15885     1 
15878 15880     1 
15878 15881     1 
15878 15882     1 
15879 15886     1 
15879 15887     1 
15879 15888     1 
15880 15883     1 
15880 15884     1 
15880 15885     1 
15881 15883     1 
15881 15884     1 
15881 15885     1 
15882 15889     1 
15882 15890     1 
15882 15891     1 
15883 15886     1 
15883 15887     1 
15883 15888     1 
15884 15886     1 
15884 15887     1 
15884 15888     1 
15885 15892     1 
15885 15893     1 
15885 15894     1 
15886 15889     1 
15886 15890     1 
15886 15891     1 
15887 15889     1 
15887 15890     1 
15887 15891     1 
15888 15895     1 
15888 15896     1 
15888 15897     1 
15889 15892     1 
15889 15893     1 
15889 15894     1 
15890 15892     1 
15890 15893     1 
15890 15894     1 
15891 15898     1 
15891 15899     1 
15891 15900     1 
15892 15895     1 
15892 15896     1 
15892 15897     1 
15893 15895     1 
15893 15896     1 
15893 15897     1 
15894 15901     1 
15894 15902     1 
15894 15903     1 
15895 15898     1 
15895 15899     1 
15895 15900     1 
15896 15898     1 
15896 15899     1 
15896 15900     1 
15898 15901     1 
15898 15902     1 
15898 15903     1 
15899 15901     1 
15899 15902     1 
15899 15903     1 
15904 15911     1 
15904 15912     1 
15904 15913     1 
15905 15908     1 
15905 15909     1 
15905 15910     1 
15906 15908     1 
15906 15909     1 
15906 15910     1 
15907 15914     1 
15907 15915     1 
15907 15916     1 
15908 15911     1 
15908 15912     1 
15908 15913     1 
15909 15911     1 
15909 15912     1 
15909 15913     1 
15910 15917     1 
15910 15918     1 
15910 15919     1 
15911 15914     1 
15911 15915     1 
15911 15916     1 
15912 15914     1 
15912 15915     1 
15912 15916     1 
15913 15920     1 
15913 15921     1 
15913 15922     1 
15914 15917     1 
15914 15918     1 
15914 15919     1 
15915 15917     1 
15915 15918     1 
15915 15919     1 
15916 15923     1 
15916 15924     1 
15916 15925     1 
15917 15920     1 
15917 15921     1 
15917 15922     1 
15918 15920     1 
15918 15921     1 
15918 15922     1 
15919 15926     1 
15919 15927     1 
15919 15928     1 
15920 15923     1 
15920 15924     1 
15920 15925     1 
15921 15923     1 
15921 15924     1 
15921 15925     1 
15922 15929     1 
15922 15930     1 
15922 15931     1 
15923 15926     1 
15923 15927     1 
15923 15928     1 
15924 15926     1 
15924 15927     1 
15924 15928     1 
15925 15932     1 
15925 15933     1 
15925 15934     1 
15926 15929     1 
15926 15930     1 
15926 15931     1 
15927 15929     1 
15927 15930     1 
15927 15931     1 
15928 15935     1 
15928 15936     1 
15928 15937     1 
15929 15932     1 
15929 15933     1 
15929 15934     1 
15930 15932     1 
15930 15933     1 
15930 15934     1 
15931 15938     1 
15931 15939     1 
15931 15940     1 
15932 15935     1 
15932 15936     1 
15932 15937     1 
15933 15935     1 
15933 15936     1 
15933 15937     1 
15934 15941     1 
15934 15942     1 
15934 15943     1 
15935 15938     1 
15935 15939     1 
15935 15940     1 
15936 15938     1 
15936 15939     1 
15936 15940     1 
15937 15944     1 
15937 15945     1 
15937 15946     1 
15938 15941     1 
15938 15942     1 
15938 15943     1 
15939 15941     1 
15939 15942     1 
15939 15943     1 
15941 15944     1 
15941 15945     1 
15941 15946     1 
15942 15944     1 
15942 15945     1 
15942 15946     1 
15947 15964     1 
15947 15965     1 
15947 15969     1 
15948 15952     1 
15948 15953     1 
15948 15954     1 
15948 15956     1 
15948 15957     1 
15948 15958     1 
15948 15960     1 
15948 15961     1 
15948 15962     1 
15948 15966     1 
15949 15951     1 
15949 15955     1 
15949 15959     1 
15949 15964     1 
15949 15965     1 
15949 15969     1 
15950 15951     1 
15950 15955     1 
15950 15959     1 
15950 15964     1 
15950 15965     1 
15950 15969     1 
15951 15956     1 
15951 15957     1 
15951 15958     1 
15951 15960     1 
15951 15961     1 
15951 15962     1 
15951 15963     1 
15952 15955     1 
15952 15959     1 
15953 15955     1 
15953 15959     1 
15954 15955     1 
15954 15959     1 
15955 15960     1 
15955 15961     1 
15955 15962     1 
15955 15963     1 
15956 15959     1 
15957 15959     1 
15958 15959     1 
15959 15963     1 
15963 15967     1 
15963 15968     1 
15963 15970     1 
15964 15966     1 
15965 15966     1 
15966 15972     1 
15966 15973     1 
15966 15974     1 
15967 15971     1 
15968 15971     1 
15969 15971     1 
15970 15975     1 
15970 15976     1 
15970 15982     1 
15971 15977     1 
15971 15983     1 
15971 15984     1 
15971 15985     1 
15972 15975     1 
15972 15976     1 
15972 15982     1 
15973 15975     1 
15973 15976     1 
15973 15982     1 
15974 15978     1 
15974 15979     1 
15974 15986     1 
15975 15977     1 
15975 15983     1 
15975 15984     1 
15975 15985     1 
15976 15980     1 
15976 15981     1 
15976 15983     1 
15976 15984     1 
15976 15985     1 
15976 15991     1 
15977 15982     1 
15977 15992     1 
15977 15993     1 
15977 15994     1 
15978 15980     1 
15978 15981     1 
15978 15991     1 
15979 15995     1 
15979 15996     1 
15979 15997     1 
15980 15992     1 
15980 15993     1 
15980 15994     1 
15981 15992     1 
15981 15993     1 
15981 15994     1 
15982 15987     1 
15982 15988     1 
15983 15986     1 
15984 15986     1 
15985 15989     1 
15985 15990     1 
15985 16038     1 
15986 16039     1 
15986 16040     1 
15986 16041     1 
15987 15989     1 
15987 15990     1 
15987 16038     1 
15988 16042     1 
15988 16043     1 
15988 16044     1 
15989 16039     1 
15989 16040     1 
15989 16041     1 
15990 16039     1 
15990 16040     1 
15990 16041     1 
15991 15998     1 
15991 15999     1 
15991 16000     1 
15992 15995     1 
15992 15996     1 
15992 15997     1 
15993 15995     1 
15993 15996     1 
15993 15997     1 
15994 16001     1 
15994 16002     1 
15994 16003     1 
15995 15998     1 
15995 15999     1 
15995 16000     1 
15996 15998     1 
15996 15999     1 
15996 16000     1 
15997 16004     1 
15997 16005     1 
15997 16006     1 
15998 16001     1 
15998 16002     1 
15998 16003     1 
15999 16001     1 
15999 16002     1 
15999 16003     1 
16000 16007     1 
16000 16008     1 
16000 16009     1 
16001 16004     1 
16001 16005     1 
16001 16006     1 
16002 16004     1 
16002 16005     1 
16002 16006     1 
16003 16010     1 
16003 16011     1 
16004 16007     1 
16004 16008     1 
16004 16009     1 
16005 16007     1 
16005 16008     1 
16005 16009     1 
16006 16012     1 
16006 16013     1 
16007 16010     1 
16007 16011     1 
16008 16010     1 
16008 16011     1 
16009 16014     1 
16009 16015     1 
16009 16016     1 
16010 16012     1 
16010 16013     1 
16011 16017     1 
16011 16018     1 
16011 16019     1 
16012 16014     1 
16012 16015     1 
16012 16016     1 
16013 16020     1 
16013 16021     1 
16013 16022     1 
16014 16017     1 
16014 16018     1 
16014 16019     1 
16015 16017     1 
16015 16018     1 
16015 16019     1 
16016 16023     1 
16016 16024     1 
16016 16025     1 
16017 16020     1 
16017 16021     1 
16017 16022     1 
16018 16020     1 
16018 16021     1 
16018 16022     1 
16019 16026     1 
16019 16027     1 
16019 16028     1 
16020 16023     1 
16020 16024     1 
16020 16025     1 
16021 16023     1 
16021 16024     1 
16021 16025     1 
16022 16029     1 
16022 16030     1 
16022 16031     1 
16023 16026     1 
16023 16027     1 
16023 16028     1 
16024 16026     1 
16024 16027     1 
16024 16028     1 
16025 16032     1 
16025 16033     1 
16025 16034     1 
16026 16029     1 
16026 16030     1 
16026 16031     1 
16027 16029     1 
16027 16030     1 
16027 16031     1 
16028 16035     1 
16028 16036     1 
16028 16037     1 
16029 16032     1 
16029 16033     1 
16029 16034     1 
16030 16032     1 
16030 16033     1 
16030 16034     1 
16032 16035     1 
16032 16036     1 
16032 16037     1 
16033 16035     1 
16033 16036     1 
16033 16037     1 
16038 16045     1 
16038 16046     1 
16038 16047     1 
16039 16042     1 
16039 16043     1 
16039 16044     1 
16040 16042     1 
16040 16043     1 
16040 16044     1 
16041 16048     1 
16041 16049     1 
16041 16050     1 
16042 16045     1 
16042 16046     1 
16042 16047     1 
16043 16045     1 
16043 16046     1 
16043 16047     1 
16044 16051     1 
16044 16052     1 
16044 16053     1 
16045 16048     1 
16045 16049     1 
16045 16050     1 
16046 16048     1 
16046 16049     1 
16046 16050     1 
16047 16054     1 
16047 16055     1 
16047 16056     1 
16048 16051     1 
16048 16052     1 
16048 16053     1 
16049 16051     1 
16049 16052     1 
16049 16053     1 
16050 16057     1 
16050 16058     1 
16050 16059     1 
16051 16054     1 
16051 16055     1 
16051 16056     1 
16052 16054     1 
16052 16055     1 
16052 16056     1 
16053 16060     1 
16053 16061     1 
16053 16062     1 
16054 16057     1 
16054 16058     1 
16054 16059     1 
16055 16057     1 
16055 16058     1 
16055 16059     1 
16056 16063     1 
16056 16064     1 
16056 16065     1 
16057 16060     1 
16057 16061     1 
16057 16062     1 
16058 16060     1 
16058 16061     1 
16058 16062     1 
16059 16066     1 
16059 16067     1 
16059 16068     1 
16060 16063     1 
16060 16064     1 
16060 16065     1 
16061 16063     1 
16061 16064     1 
16061 16065     1 
16062 16069     1 
16062 16070     1 
16062 16071     1 
16063 16066     1 
16063 16067     1 
16063 16068     1 
16064 16066     1 
16064 16067     1 
16064 16068     1 
16065 16072     1 
16065 16073     1 
16065 16074     1 
16066 16069     1 
16066 16070     1 
16066 16071     1 
16067 16069     1 
16067 16070     1 
16067 16071     1 
16068 16075     1 
16068 16076     1 
16068 16077     1 
16069 16072     1 
16069 16073     1 
16069 16074     1 
16070 16072     1 
16070 16073     1 
16070 16074     1 
16071 16078     1 
16071 16079     1 
16071 16080     1 
16072 16075     1 
16072 16076     1 
16072 16077     1 
16073 16075     1 
16073 16076     1 
16073 16077     1 
16075 16078     1 
16075 16079     1 
16075 16080     1 
16076 16078     1 
16076 16079     1 
16076 16080     1 
16081 16098     1 
16081 16099     1 
16081 16103     1 
16082 16086     1 
16082 16087     1 
16082 16088     1 
16082 16090     1 
16082 16091     1 
16082 16092     1 
16082 16094     1 
16082 16095     1 
16082 16096     1 
16082 16100     1 
16083 16085     1 
16083 16089     1 
16083 16093     1 
16083 16098     1 
16083 16099     1 
16083 16103     1 
16084 16085     1 
16084 16089     1 
16084 16093     1 
16084 16098     1 
16084 16099     1 
16084 16103     1 
16085 16090     1 
16085 16091     1 
16085 16092     1 
16085 16094     1 
16085 16095     1 
16085 16096     1 
16085 16097     1 
16086 16089     1 
16086 16093     1 
16087 16089     1 
16087 16093     1 
16088 16089     1 
16088 16093     1 
16089 16094     1 
16089 16095     1 
16089 16096     1 
16089 16097     1 
16090 16093     1 
16091 16093     1 
16092 16093     1 
16093 16097     1 
16097 16101     1 
16097 16102     1 
16097 16104     1 
16098 16100     1 
16099 16100     1 
16100 16106     1 
16100 16107     1 
16100 16108     1 
16101 16105     1 
16102 16105     1 
16103 16105     1 
16104 16109     1 
16104 16110     1 
16104 16116     1 
16105 16111     1 
16105 16117     1 
16105 16118     1 
16105 16119     1 
16106 16109     1 
16106 16110     1 
16106 16116     1 
16107 16109     1 
16107 16110     1 
16107 16116     1 
16108 16112     1 
16108 16113     1 
16108 16120     1 
16109 16111     1 
16109 16117     1 
16109 16118     1 
16109 16119     1 
16110 16114     1 
16110 16115     1 
16110 16117     1 
16110 16118     1 
16110 16119     1 
16110 16125     1 
16111 16116     1 
16111 16126     1 
16111 16127     1 
16111 16128     1 
16112 16114     1 
16112 16115     1 
16112 16125     1 
16113 16129     1 
16113 16130     1 
16113 16131     1 
16114 16126     1 
16114 16127     1 
16114 16128     1 
16115 16126     1 
16115 16127     1 
16115 16128     1 
16116 16121     1 
16116 16122     1 
16117 16120     1 
16118 16120     1 
16119 16123     1 
16119 16124     1 
16119 16172     1 
16120 16173     1 
16120 16174     1 
16120 16175     1 
16121 16123     1 
16121 16124     1 
16121 16172     1 
16122 16176     1 
16122 16177     1 
16122 16178     1 
16123 16173     1 
16123 16174     1 
16123 16175     1 
16124 16173     1 
16124 16174     1 
16124 16175     1 
16125 16132     1 
16125 16133     1 
16125 16134     1 
16126 16129     1 
16126 16130     1 
16126 16131     1 
16127 16129     1 
16127 16130     1 
16127 16131     1 
16128 16135     1 
16128 16136     1 
16128 16137     1 
16129 16132     1 
16129 16133     1 
16129 16134     1 
16130 16132     1 
16130 16133     1 
16130 16134     1 
16131 16138     1 
16131 16139     1 
16131 16140     1 
16132 16135     1 
16132 16136     1 
16132 16137     1 
16133 16135     1 
16133 16136     1 
16133 16137     1 
16134 16141     1 
16134 16142     1 
16134 16143     1 
16135 16138     1 
16135 16139     1 
16135 16140     1 
16136 16138     1 
16136 16139     1 
16136 16140     1 
16137 16144     1 
16137 16145     1 
16138 16141     1 
16138 16142     1 
16138 16143     1 
16139 16141     1 
16139 16142     1 
16139 16143     1 
16140 16146     1 
16140 16147     1 
16141 16144     1 
16141 16145     1 
16142 16144     1 
16142 16145     1 
16143 16148     1 
16143 16149     1 
16143 16150     1 
16144 16146     1 
16144 16147     1 
16145 16151     1 
16145 16152     1 
16145 16153     1 
16146 16148     1 
16146 16149     1 
16146 16150     1 
16147 16154     1 
16147 16155     1 
16147 16156     1 
16148 16151     1 
16148 16152     1 
16148 16153     1 
16149 16151     1 
16149 16152     1 
16149 16153     1 
16150 16157     1 
16150 16158     1 
16150 16159     1 
16151 16154     1 
16151 16155     1 
16151 16156     1 
16152 16154     1 
16152 16155     1 
16152 16156     1 
16153 16160     1 
16153 16161     1 
16153 16162     1 
16154 16157     1 
16154 16158     1 
16154 16159     1 
16155 16157     1 
16155 16158     1 
16155 16159     1 
16156 16163     1 
16156 16164     1 
16156 16165     1 
16157 16160     1 
16157 16161     1 
16157 16162     1 
16158 16160     1 
16158 16161     1 
16158 16162     1 
16159 16166     1 
16159 16167     1 
16159 16168     1 
16160 16163     1 
16160 16164     1 
16160 16165     1 
16161 16163     1 
16161 16164     1 
16161 16165     1 
16162 16169     1 
16162 16170     1 
16162 16171     1 
16163 16166     1 
16163 16167     1 
16163 16168     1 
16164 16166     1 
16164 16167     1 
16164 16168     1 
16166 16169     1 
16166 16170     1 
16166 16171     1 
16167 16169     1 
16167 16170     1 
16167 16171     1 
16172 16179     1 
16172 16180     1 
16172 16181     1 
16173 16176     1 
16173 16177     1 
16173 16178     1 
16174 16176     1 
16174 16177     1 
16174 16178     1 
16175 16182     1 
16175 16183     1 
16175 16184     1 
16176 16179     1 
16176 16180     1 
16176 16181     1 
16177 16179     1 
16177 16180     1 
16177 16181     1 
16178 16185     1 
16178 16186     1 
16178 16187     1 
16179 16182     1 
16179 16183     1 
16179 16184     1 
16180 16182     1 
16180 16183     1 
16180 16184     1 
16181 16188     1 
16181 16189     1 
16181 16190     1 
16182 16185     1 
16182 16186     1 
16182 16187     1 
16183 16185     1 
16183 16186     1 
16183 16187     1 
16184 16191     1 
16184 16192     1 
16184 16193     1 
16185 16188     1 
16185 16189     1 
16185 16190     1 
16186 16188     1 
16186 16189     1 
16186 16190     1 
16187 16194     1 
16187 16195     1 
16187 16196     1 
16188 16191     1 
16188 16192     1 
16188 16193     1 
16189 16191     1 
16189 16192     1 
16189 16193     1 
16190 16197     1 
16190 16198     1 
16190 16199     1 
16191 16194     1 
16191 16195     1 
16191 16196     1 
16192 16194     1 
16192 16195     1 
16192 16196     1 
16193 16200     1 
16193 16201     1 
16193 16202     1 
16194 16197     1 
16194 16198     1 
16194 16199     1 
16195 16197     1 
16195 16198     1 
16195 16199     1 
16196 16203     1 
16196 16204     1 
16196 16205     1 
16197 16200     1 
16197 16201     1 
16197 16202     1 
16198 16200     1 
16198 16201     1 
16198 16202     1 
16199 16206     1 
16199 16207     1 
16199 16208     1 
16200 16203     1 
16200 16204     1 
16200 16205     1 
16201 16203     1 
16201 16204     1 
16201 16205     1 
16202 16209     1 
16202 16210     1 
16202 16211     1 
16203 16206     1 
16203 16207     1 
16203 16208     1 
16204 16206     1 
16204 16207     1 
16204 16208     1 
16205 16212     1 
16205 16213     1 
16205 16214     1 
16206 16209     1 
16206 16210     1 
16206 16211     1 
16207 16209     1 
16207 16210     1 
16207 16211     1 
16209 16212     1 
16209 16213     1 
16209 16214     1 
16210 16212     1 
16210 16213     1 
16210 16214     1 
16215 16232     1 
16215 16233     1 
16215 16237     1 
16216 16220     1 
16216 16221     1 
16216 16222     1 
16216 16224     1 
16216 16225     1 
16216 16226     1 
16216 16228     1 
16216 16229     1 
16216 16230     1 
16216 16234     1 
16217 16219     1 
16217 16223     1 
16217 16227     1 
16217 16232     1 
16217 16233     1 
16217 16237     1 
16218 16219     1 
16218 16223     1 
16218 16227     1 
16218 16232     1 
16218 16233     1 
16218 16237     1 
16219 16224     1 
16219 16225     1 
16219 16226     1 
16219 16228     1 
16219 16229     1 
16219 16230     1 
16219 16231     1 
16220 16223     1 
16220 16227     1 
16221 16223     1 
16221 16227     1 
16222 16223     1 
16222 16227     1 
16223 16228     1 
16223 16229     1 
16223 16230     1 
16223 16231     1 
16224 16227     1 
16225 16227     1 
16226 16227     1 
16227 16231     1 
16231 16235     1 
16231 16236     1 
16231 16238     1 
16232 16234     1 
16233 16234     1 
16234 16240     1 
16234 16241     1 
16234 16242     1 
16235 16239     1 
16236 16239     1 
16237 16239     1 
16238 16243     1 
16238 16244     1 
16238 16250     1 
16239 16245     1 
16239 16251     1 
16239 16252     1 
16239 16253     1 
16240 16243     1 
16240 16244     1 
16240 16250     1 
16241 16243     1 
16241 16244     1 
16241 16250     1 
16242 16246     1 
16242 16247     1 
16242 16254     1 
16243 16245     1 
16243 16251     1 
16243 16252     1 
16243 16253     1 
16244 16248     1 
16244 16249     1 
16244 16251     1 
16244 16252     1 
16244 16253     1 
16244 16259     1 
16245 16250     1 
16245 16260     1 
16245 16261     1 
16245 16262     1 
16246 16248     1 
16246 16249     1 
16246 16259     1 
16247 16263     1 
16247 16264     1 
16247 16265     1 
16248 16260     1 
16248 16261     1 
16248 16262     1 
16249 16260     1 
16249 16261     1 
16249 16262     1 
16250 16255     1 
16250 16256     1 
16251 16254     1 
16252 16254     1 
16253 16257     1 
16253 16258     1 
16253 16306     1 
16254 16307     1 
16254 16308     1 
16254 16309     1 
16255 16257     1 
16255 16258     1 
16255 16306     1 
16256 16310     1 
16256 16311     1 
16256 16312     1 
16257 16307     1 
16257 16308     1 
16257 16309     1 
16258 16307     1 
16258 16308     1 
16258 16309     1 
16259 16266     1 
16259 16267     1 
16259 16268     1 
16260 16263     1 
16260 16264     1 
16260 16265     1 
16261 16263     1 
16261 16264     1 
16261 16265     1 
16262 16269     1 
16262 16270     1 
16262 16271     1 
16263 16266     1 
16263 16267     1 
16263 16268     1 
16264 16266     1 
16264 16267     1 
16264 16268     1 
16265 16272     1 
16265 16273     1 
16265 16274     1 
16266 16269     1 
16266 16270     1 
16266 16271     1 
16267 16269     1 
16267 16270     1 
16267 16271     1 
16268 16275     1 
16268 16276     1 
16268 16277     1 
16269 16272     1 
16269 16273     1 
16269 16274     1 
16270 16272     1 
16270 16273     1 
16270 16274     1 
16271 16278     1 
16271 16279     1 
16272 16275     1 
16272 16276     1 
16272 16277     1 
16273 16275     1 
16273 16276     1 
16273 16277     1 
16274 16280     1 
16274 16281     1 
16275 16278     1 
16275 16279     1 
16276 16278     1 
16276 16279     1 
16277 16282     1 
16277 16283     1 
16277 16284     1 
16278 16280     1 
16278 16281     1 
16279 16285     1 
16279 16286     1 
16279 16287     1 
16280 16282     1 
16280 16283     1 
16280 16284     1 
16281 16288     1 
16281 16289     1 
16281 16290     1 
16282 16285     1 
16282 16286     1 
16282 16287     1 
16283 16285     1 
16283 16286     1 
16283 16287     1 
16284 16291     1 
16284 16292     1 
16284 16293     1 
16285 16288     1 
16285 16289     1 
16285 16290     1 
16286 16288     1 
16286 16289     1 
16286 16290     1 
16287 16294     1 
16287 16295     1 
16287 16296     1 
16288 16291     1 
16288 16292     1 
16288 16293     1 
16289 16291     1 
16289 16292     1 
16289 16293     1 
16290 16297     1 
16290 16298     1 
16290 16299     1 
16291 16294     1 
16291 16295     1 
16291 16296     1 
16292 16294     1 
16292 16295     1 
16292 16296     1 
16293 16300     1 
16293 16301     1 
16293 16302     1 
16294 16297     1 
16294 16298     1 
16294 16299     1 
16295 16297     1 
16295 16298     1 
16295 16299     1 
16296 16303     1 
16296 16304     1 
16296 16305     1 
16297 16300     1 
16297 16301     1 
16297 16302     1 
16298 16300     1 
16298 16301     1 
16298 16302     1 
16300 16303     1 
16300 16304     1 
16300 16305     1 
16301 16303     1 
16301 16304     1 
16301 16305     1 
16306 16313     1 
16306 16314     1 
16306 16315     1 
16307 16310     1 
16307 16311     1 
16307 16312     1 
16308 16310     1 
16308 16311     1 
16308 16312     1 
16309 16316     1 
16309 16317     1 
16309 16318     1 
16310 16313     1 
16310 16314     1 
16310 16315     1 
16311 16313     1 
16311 16314     1 
16311 16315     1 
16312 16319     1 
16312 16320     1 
16312 16321     1 
16313 16316     1 
16313 16317     1 
16313 16318     1 
16314 16316     1 
16314 16317     1 
16314 16318     1 
16315 16322     1 
16315 16323     1 
16315 16324     1 
16316 16319     1 
16316 16320     1 
16316 16321     1 
16317 16319     1 
16317 16320     1 
16317 16321     1 
16318 16325     1 
16318 16326     1 
16318 16327     1 
16319 16322     1 
16319 16323     1 
16319 16324     1 
16320 16322     1 
16320 16323     1 
16320 16324     1 
16321 16328     1 
16321 16329     1 
16321 16330     1 
16322 16325     1 
16322 16326     1 
16322 16327     1 
16323 16325     1 
16323 16326     1 
16323 16327     1 
16324 16331     1 
16324 16332     1 
16324 16333     1 
16325 16328     1 
16325 16329     1 
16325 16330     1 
16326 16328     1 
16326 16329     1 
16326 16330     1 
16327 16334     1 
16327 16335     1 
16327 16336     1 
16328 16331     1 
16328 16332     1 
16328 16333     1 
16329 16331     1 
16329 16332     1 
16329 16333     1 
16330 16337     1 
16330 16338     1 
16330 16339     1 
16331 16334     1 
16331 16335     1 
16331 16336     1 
16332 16334     1 
16332 16335     1 
16332 16336     1 
16333 16340     1 
16333 16341     1 
16333 16342     1 
16334 16337     1 
16334 16338     1 
16334 16339     1 
16335 16337     1 
16335 16338     1 
16335 16339     1 
16336 16343     1 
16336 16344     1 
16336 16345     1 
16337 16340     1 
16337 16341     1 
16337 16342     1 
16338 16340     1 
16338 16341     1 
16338 16342     1 
16339 16346     1 
16339 16347     1 
16339 16348     1 
16340 16343     1 
16340 16344     1 
16340 16345     1 
16341 16343     1 
16341 16344     1 
16341 16345     1 
16343 16346     1 
16343 16347     1 
16343 16348     1 
16344 16346     1 
16344 16347     1 
16344 16348     1 
16349 16366     1 
16349 16367     1 
16349 16371     1 
16350 16354     1 
16350 16355     1 
16350 16356     1 
16350 16358     1 
16350 16359     1 
16350 16360     1 
16350 16362     1 
16350 16363     1 
16350 16364     1 
16350 16368     1 
16351 16353     1 
16351 16357     1 
16351 16361     1 
16351 16366     1 
16351 16367     1 
16351 16371     1 
16352 16353     1 
16352 16357     1 
16352 16361     1 
16352 16366     1 
16352 16367     1 
16352 16371     1 
16353 16358     1 
16353 16359     1 
16353 16360     1 
16353 16362     1 
16353 16363     1 
16353 16364     1 
16353 16365     1 
16354 16357     1 
16354 16361     1 
16355 16357     1 
16355 16361     1 
16356 16357     1 
16356 16361     1 
16357 16362     1 
16357 16363     1 
16357 16364     1 
16357 16365     1 
16358 16361     1 
16359 16361     1 
16360 16361     1 
16361 16365     1 
16365 16369     1 
16365 16370     1 
16365 16372     1 
16366 16368     1 
16367 16368     1 
16368 16374     1 
16368 16375     1 
16368 16376     1 
16369 16373     1 
16370 16373     1 
16371 16373     1 
16372 16377     1 
16372 16378     1 
16372 16384     1 
16373 16379     1 
16373 16385     1 
16373 16386     1 
16373 16387     1 
16374 16377     1 
16374 16378     1 
16374 16384     1 
16375 16377     1 
16375 16378     1 
16375 16384     1 
16376 16380     1 
16376 16381     1 
16376 16388     1 
16377 16379     1 
16377 16385     1 
16377 16386     1 
16377 16387     1 
16378 16382     1 
16378 16383     1 
16378 16385     1 
16378 16386     1 
16378 16387     1 
16378 16393     1 
16379 16384     1 
16379 16394     1 
16379 16395     1 
16379 16396     1 
16380 16382     1 
16380 16383     1 
16380 16393     1 
16381 16397     1 
16381 16398     1 
16381 16399     1 
16382 16394     1 
16382 16395     1 
16382 16396     1 
16383 16394     1 
16383 16395     1 
16383 16396     1 
16384 16389     1 
16384 16390     1 
16385 16388     1 
16386 16388     1 
16387 16391     1 
16387 16392     1 
16387 16440     1 
16388 16441     1 
16388 16442     1 
16388 16443     1 
16389 16391     1 
16389 16392     1 
16389 16440     1 
16390 16444     1 
16390 16445     1 
16390 16446     1 
16391 16441     1 
16391 16442     1 
16391 16443     1 
16392 16441     1 
16392 16442     1 
16392 16443     1 
16393 16400     1 
16393 16401     1 
16393 16402     1 
16394 16397     1 
16394 16398     1 
16394 16399     1 
16395 16397     1 
16395 16398     1 
16395 16399     1 
16396 16403     1 
16396 16404     1 
16396 16405     1 
16397 16400     1 
16397 16401     1 
16397 16402     1 
16398 16400     1 
16398 16401     1 
16398 16402     1 
16399 16406     1 
16399 16407     1 
16399 16408     1 
16400 16403     1 
16400 16404     1 
16400 16405     1 
16401 16403     1 
16401 16404     1 
16401 16405     1 
16402 16409     1 
16402 16410     1 
16402 16411     1 
16403 16406     1 
16403 16407     1 
16403 16408     1 
16404 16406     1 
16404 16407     1 
16404 16408     1 
16405 16412     1 
16405 16413     1 
16406 16409     1 
16406 16410     1 
16406 16411     1 
16407 16409     1 
16407 16410     1 
16407 16411     1 
16408 16414     1 
16408 16415     1 
16409 16412     1 
16409 16413     1 
16410 16412     1 
16410 16413     1 
16411 16416     1 
16411 16417     1 
16411 16418     1 
16412 16414     1 
16412 16415     1 
16413 16419     1 
16413 16420     1 
16413 16421     1 
16414 16416     1 
16414 16417     1 
16414 16418     1 
16415 16422     1 
16415 16423     1 
16415 16424     1 
16416 16419     1 
16416 16420     1 
16416 16421     1 
16417 16419     1 
16417 16420     1 
16417 16421     1 
16418 16425     1 
16418 16426     1 
16418 16427     1 
16419 16422     1 
16419 16423     1 
16419 16424     1 
16420 16422     1 
16420 16423     1 
16420 16424     1 
16421 16428     1 
16421 16429     1 
16421 16430     1 
16422 16425     1 
16422 16426     1 
16422 16427     1 
16423 16425     1 
16423 16426     1 
16423 16427     1 
16424 16431     1 
16424 16432     1 
16424 16433     1 
16425 16428     1 
16425 16429     1 
16425 16430     1 
16426 16428     1 
16426 16429     1 
16426 16430     1 
16427 16434     1 
16427 16435     1 
16427 16436     1 
16428 16431     1 
16428 16432     1 
16428 16433     1 
16429 16431     1 
16429 16432     1 
16429 16433     1 
16430 16437     1 
16430 16438     1 
16430 16439     1 
16431 16434     1 
16431 16435     1 
16431 16436     1 
16432 16434     1 
16432 16435     1 
16432 16436     1 
16434 16437     1 
16434 16438     1 
16434 16439     1 
16435 16437     1 
16435 16438     1 
16435 16439     1 
16440 16447     1 
16440 16448     1 
16440 16449     1 
16441 16444     1 
16441 16445     1 
16441 16446     1 
16442 16444     1 
16442 16445     1 
16442 16446     1 
16443 16450     1 
16443 16451     1 
16443 16452     1 
16444 16447     1 
16444 16448     1 
16444 16449     1 
16445 16447     1 
16445 16448     1 
16445 16449     1 
16446 16453     1 
16446 16454     1 
16446 16455     1 
16447 16450     1 
16447 16451     1 
16447 16452     1 
16448 16450     1 
16448 16451     1 
16448 16452     1 
16449 16456     1 
16449 16457     1 
16449 16458     1 
16450 16453     1 
16450 16454     1 
16450 16455     1 
16451 16453     1 
16451 16454     1 
16451 16455     1 
16452 16459     1 
16452 16460     1 
16452 16461     1 
16453 16456     1 
16453 16457     1 
16453 16458     1 
16454 16456     1 
16454 16457     1 
16454 16458     1 
16455 16462     1 
16455 16463     1 
16455 16464     1 
16456 16459     1 
16456 16460     1 
16456 16461     1 
16457 16459     1 
16457 16460     1 
16457 16461     1 
16458 16465     1 
16458 16466     1 
16458 16467     1 
16459 16462     1 
16459 16463     1 
16459 16464     1 
16460 16462     1 
16460 16463     1 
16460 16464     1 
16461 16468     1 
16461 16469     1 
16461 16470     1 
16462 16465     1 
16462 16466     1 
16462 16467     1 
16463 16465     1 
16463 16466     1 
16463 16467     1 
16464 16471     1 
16464 16472     1 
16464 16473     1 
16465 16468     1 
16465 16469     1 
16465 16470     1 
16466 16468     1 
16466 16469     1 
16466 16470     1 
16467 16474     1 
16467 16475     1 
16467 16476     1 
16468 16471     1 
16468 16472     1 
16468 16473     1 
16469 16471     1 
16469 16472     1 
16469 16473     1 
16470 16477     1 
16470 16478     1 
16470 16479     1 
16471 16474     1 
16471 16475     1 
16471 16476     1 
16472 16474     1 
16472 16475     1 
16472 16476     1 
16473 16480     1 
16473 16481     1 
16473 16482     1 
16474 16477     1 
16474 16478     1 
16474 16479     1 
16475 16477     1 
16475 16478     1 
16475 16479     1 
16477 16480     1 
16477 16481     1 
16477 16482     1 
16478 16480     1 
16478 16481     1 
16478 16482     1 
16483 16500     1 
16483 16501     1 
16483 16505     1 
16484 16488     1 
16484 16489     1 
16484 16490     1 
16484 16492     1 
16484 16493     1 
16484 16494     1 
16484 16496     1 
16484 16497     1 
16484 16498     1 
16484 16502     1 
16485 16487     1 
16485 16491     1 
16485 16495     1 
16485 16500     1 
16485 16501     1 
16485 16505     1 
16486 16487     1 
16486 16491     1 
16486 16495     1 
16486 16500     1 
16486 16501     1 
16486 16505     1 
16487 16492     1 
16487 16493     1 
16487 16494     1 
16487 16496     1 
16487 16497     1 
16487 16498     1 
16487 16499     1 
16488 16491     1 
16488 16495     1 
16489 16491     1 
16489 16495     1 
16490 16491     1 
16490 16495     1 
16491 16496     1 
16491 16497     1 
16491 16498     1 
16491 16499     1 
16492 16495     1 
16493 16495     1 
16494 16495     1 
16495 16499     1 
16499 16503     1 
16499 16504     1 
16499 16506     1 
16500 16502     1 
16501 16502     1 
16502 16508     1 
16502 16509     1 
16502 16510     1 
16503 16507     1 
16504 16507     1 
16505 16507     1 
16506 16511     1 
16506 16512     1 
16506 16518     1 
16507 16513     1 
16507 16519     1 
16507 16520     1 
16507 16521     1 
16508 16511     1 
16508 16512     1 
16508 16518     1 
16509 16511     1 
16509 16512     1 
16509 16518     1 
16510 16514     1 
16510 16515     1 
16510 16522     1 
16511 16513     1 
16511 16519     1 
16511 16520     1 
16511 16521     1 
16512 16516     1 
16512 16517     1 
16512 16519     1 
16512 16520     1 
16512 16521     1 
16512 16527     1 
16513 16518     1 
16513 16528     1 
16513 16529     1 
16513 16530     1 
16514 16516     1 
16514 16517     1 
16514 16527     1 
16515 16531     1 
16515 16532     1 
16515 16533     1 
16516 16528     1 
16516 16529     1 
16516 16530     1 
16517 16528     1 
16517 16529     1 
16517 16530     1 
16518 16523     1 
16518 16524     1 
16519 16522     1 
16520 16522     1 
16521 16525     1 
16521 16526     1 
16521 16574     1 
16522 16575     1 
16522 16576     1 
16522 16577     1 
16523 16525     1 
16523 16526     1 
16523 16574     1 
16524 16578     1 
16524 16579     1 
16524 16580     1 
16525 16575     1 
16525 16576     1 
16525 16577     1 
16526 16575     1 
16526 16576     1 
16526 16577     1 
16527 16534     1 
16527 16535     1 
16527 16536     1 
16528 16531     1 
16528 16532     1 
16528 16533     1 
16529 16531     1 
16529 16532     1 
16529 16533     1 
16530 16537     1 
16530 16538     1 
16530 16539     1 
16531 16534     1 
16531 16535     1 
16531 16536     1 
16532 16534     1 
16532 16535     1 
16532 16536     1 
16533 16540     1 
16533 16541     1 
16533 16542     1 
16534 16537     1 
16534 16538     1 
16534 16539     1 
16535 16537     1 
16535 16538     1 
16535 16539     1 
16536 16543     1 
16536 16544     1 
16536 16545     1 
16537 16540     1 
16537 16541     1 
16537 16542     1 
16538 16540     1 
16538 16541     1 
16538 16542     1 
16539 16546     1 
16539 16547     1 
16540 16543     1 
16540 16544     1 
16540 16545     1 
16541 16543     1 
16541 16544     1 
16541 16545     1 
16542 16548     1 
16542 16549     1 
16543 16546     1 
16543 16547     1 
16544 16546     1 
16544 16547     1 
16545 16550     1 
16545 16551     1 
16545 16552     1 
16546 16548     1 
16546 16549     1 
16547 16553     1 
16547 16554     1 
16547 16555     1 
16548 16550     1 
16548 16551     1 
16548 16552     1 
16549 16556     1 
16549 16557     1 
16549 16558     1 
16550 16553     1 
16550 16554     1 
16550 16555     1 
16551 16553     1 
16551 16554     1 
16551 16555     1 
16552 16559     1 
16552 16560     1 
16552 16561     1 
16553 16556     1 
16553 16557     1 
16553 16558     1 
16554 16556     1 
16554 16557     1 
16554 16558     1 
16555 16562     1 
16555 16563     1 
16555 16564     1 
16556 16559     1 
16556 16560     1 
16556 16561     1 
16557 16559     1 
16557 16560     1 
16557 16561     1 
16558 16565     1 
16558 16566     1 
16558 16567     1 
16559 16562     1 
16559 16563     1 
16559 16564     1 
16560 16562     1 
16560 16563     1 
16560 16564     1 
16561 16568     1 
16561 16569     1 
16561 16570     1 
16562 16565     1 
16562 16566     1 
16562 16567     1 
16563 16565     1 
16563 16566     1 
16563 16567     1 
16564 16571     1 
16564 16572     1 
16564 16573     1 
16565 16568     1 
16565 16569     1 
16565 16570     1 
16566 16568     1 
16566 16569     1 
16566 16570     1 
16568 16571     1 
16568 16572     1 
16568 16573     1 
16569 16571     1 
16569 16572     1 
16569 16573     1 
16574 16581     1 
16574 16582     1 
16574 16583     1 
16575 16578     1 
16575 16579     1 
16575 16580     1 
16576 16578     1 
16576 16579     1 
16576 16580     1 
16577 16584     1 
16577 16585     1 
16577 16586     1 
16578 16581     1 
16578 16582     1 
16578 16583     1 
16579 16581     1 
16579 16582     1 
16579 16583     1 
16580 16587     1 
16580 16588     1 
16580 16589     1 
16581 16584     1 
16581 16585     1 
16581 16586     1 
16582 16584     1 
16582 16585     1 
16582 16586     1 
16583 16590     1 
16583 16591     1 
16583 16592     1 
16584 16587     1 
16584 16588     1 
16584 16589     1 
16585 16587     1 
16585 16588     1 
16585 16589     1 
16586 16593     1 
16586 16594     1 
16586 16595     1 
16587 16590     1 
16587 16591     1 
16587 16592     1 
16588 16590     1 
16588 16591     1 
16588 16592     1 
16589 16596     1 
16589 16597     1 
16589 16598     1 
16590 16593     1 
16590 16594     1 
16590 16595     1 
16591 16593     1 
16591 16594     1 
16591 16595     1 
16592 16599     1 
16592 16600     1 
16592 16601     1 
16593 16596     1 
16593 16597     1 
16593 16598     1 
16594 16596     1 
16594 16597     1 
16594 16598     1 
16595 16602     1 
16595 16603     1 
16595 16604     1 
16596 16599     1 
16596 16600     1 
16596 16601     1 
16597 16599     1 
16597 16600     1 
16597 16601     1 
16598 16605     1 
16598 16606     1 
16598 16607     1 
16599 16602     1 
16599 16603     1 
16599 16604     1 
16600 16602     1 
16600 16603     1 
16600 16604     1 
16601 16608     1 
16601 16609     1 
16601 16610     1 
16602 16605     1 
16602 16606     1 
16602 16607     1 
16603 16605     1 
16603 16606     1 
16603 16607     1 
16604 16611     1 
16604 16612     1 
16604 16613     1 
16605 16608     1 
16605 16609     1 
16605 16610     1 
16606 16608     1 
16606 16609     1 
16606 16610     1 
16607 16614     1 
16607 16615     1 
16607 16616     1 
16608 16611     1 
16608 16612     1 
16608 16613     1 
16609 16611     1 
16609 16612     1 
16609 16613     1 
16611 16614     1 
16611 16615     1 
16611 16616     1 
16612 16614     1 
16612 16615     1 
16612 16616     1 
16617 16634     1 
16617 16635     1 
16617 16639     1 
16618 16622     1 
16618 16623     1 
16618 16624     1 
16618 16626     1 
16618 16627     1 
16618 16628     1 
16618 16630     1 
16618 16631     1 
16618 16632     1 
16618 16636     1 
16619 16621     1 
16619 16625     1 
16619 16629     1 
16619 16634     1 
16619 16635     1 
16619 16639     1 
16620 16621     1 
16620 16625     1 
16620 16629     1 
16620 16634     1 
16620 16635     1 
16620 16639     1 
16621 16626     1 
16621 16627     1 
16621 16628     1 
16621 16630     1 
16621 16631     1 
16621 16632     1 
16621 16633     1 
16622 16625     1 
16622 16629     1 
16623 16625     1 
16623 16629     1 
16624 16625     1 
16624 16629     1 
16625 16630     1 
16625 16631     1 
16625 16632     1 
16625 16633     1 
16626 16629     1 
16627 16629     1 
16628 16629     1 
16629 16633     1 
16633 16637     1 
16633 16638     1 
16633 16640     1 
16634 16636     1 
16635 16636     1 
16636 16642     1 
16636 16643     1 
16636 16644     1 
16637 16641     1 
16638 16641     1 
16639 16641     1 
16640 16645     1 
16640 16646     1 
16640 16652     1 
16641 16647     1 
16641 16653     1 
16641 16654     1 
16641 16655     1 
16642 16645     1 
16642 16646     1 
16642 16652     1 
16643 16645     1 
16643 16646     1 
16643 16652     1 
16644 16648     1 
16644 16649     1 
16644 16656     1 
16645 16647     1 
16645 16653     1 
16645 16654     1 
16645 16655     1 
16646 16650     1 
16646 16651     1 
16646 16653     1 
16646 16654     1 
16646 16655     1 
16646 16661     1 
16647 16652     1 
16647 16662     1 
16647 16663     1 
16647 16664     1 
16648 16650     1 
16648 16651     1 
16648 16661     1 
16649 16665     1 
16649 16666     1 
16649 16667     1 
16650 16662     1 
16650 16663     1 
16650 16664     1 
16651 16662     1 
16651 16663     1 
16651 16664     1 
16652 16657     1 
16652 16658     1 
16653 16656     1 
16654 16656     1 
16655 16659     1 
16655 16660     1 
16655 16708     1 
16656 16709     1 
16656 16710     1 
16656 16711     1 
16657 16659     1 
16657 16660     1 
16657 16708     1 
16658 16712     1 
16658 16713     1 
16658 16714     1 
16659 16709     1 
16659 16710     1 
16659 16711     1 
16660 16709     1 
16660 16710     1 
16660 16711     1 
16661 16668     1 
16661 16669     1 
16661 16670     1 
16662 16665     1 
16662 16666     1 
16662 16667     1 
16663 16665     1 
16663 16666     1 
16663 16667     1 
16664 16671     1 
16664 16672     1 
16664 16673     1 
16665 16668     1 
16665 16669     1 
16665 16670     1 
16666 16668     1 
16666 16669     1 
16666 16670     1 
16667 16674     1 
16667 16675     1 
16667 16676     1 
16668 16671     1 
16668 16672     1 
16668 16673     1 
16669 16671     1 
16669 16672     1 
16669 16673     1 
16670 16677     1 
16670 16678     1 
16670 16679     1 
16671 16674     1 
16671 16675     1 
16671 16676     1 
16672 16674     1 
16672 16675     1 
16672 16676     1 
16673 16680     1 
16673 16681     1 
16674 16677     1 
16674 16678     1 
16674 16679     1 
16675 16677     1 
16675 16678     1 
16675 16679     1 
16676 16682     1 
16676 16683     1 
16677 16680     1 
16677 16681     1 
16678 16680     1 
16678 16681     1 
16679 16684     1 
16679 16685     1 
16679 16686     1 
16680 16682     1 
16680 16683     1 
16681 16687     1 
16681 16688     1 
16681 16689     1 
16682 16684     1 
16682 16685     1 
16682 16686     1 
16683 16690     1 
16683 16691     1 
16683 16692     1 
16684 16687     1 
16684 16688     1 
16684 16689     1 
16685 16687     1 
16685 16688     1 
16685 16689     1 
16686 16693     1 
16686 16694     1 
16686 16695     1 
16687 16690     1 
16687 16691     1 
16687 16692     1 
16688 16690     1 
16688 16691     1 
16688 16692     1 
16689 16696     1 
16689 16697     1 
16689 16698     1 
16690 16693     1 
16690 16694     1 
16690 16695     1 
16691 16693     1 
16691 16694     1 
16691 16695     1 
16692 16699     1 
16692 16700     1 
16692 16701     1 
16693 16696     1 
16693 16697     1 
16693 16698     1 
16694 16696     1 
16694 16697     1 
16694 16698     1 
16695 16702     1 
16695 16703     1 
16695 16704     1 
16696 16699     1 
16696 16700     1 
16696 16701     1 
16697 16699     1 
16697 16700     1 
16697 16701     1 
16698 16705     1 
16698 16706     1 
16698 16707     1 
16699 16702     1 
16699 16703     1 
16699 16704     1 
16700 16702     1 
16700 16703     1 
16700 16704     1 
16702 16705     1 
16702 16706     1 
16702 16707     1 
16703 16705     1 
16703 16706     1 
16703 16707     1 
16708 16715     1 
16708 16716     1 
16708 16717     1 
16709 16712     1 
16709 16713     1 
16709 16714     1 
16710 16712     1 
16710 16713     1 
16710 16714     1 
16711 16718     1 
16711 16719     1 
16711 16720     1 
16712 16715     1 
16712 16716     1 
16712 16717     1 
16713 16715     1 
16713 16716     1 
16713 16717     1 
16714 16721     1 
16714 16722     1 
16714 16723     1 
16715 16718     1 
16715 16719     1 
16715 16720     1 
16716 16718     1 
16716 16719     1 
16716 16720     1 
16717 16724     1 
16717 16725     1 
16717 16726     1 
16718 16721     1 
16718 16722     1 
16718 16723     1 
16719 16721     1 
16719 16722     1 
16719 16723     1 
16720 16727     1 
16720 16728     1 
16720 16729     1 
16721 16724     1 
16721 16725     1 
16721 16726     1 
16722 16724     1 
16722 16725     1 
16722 16726     1 
16723 16730     1 
16723 16731     1 
16723 16732     1 
16724 16727     1 
16724 16728     1 
16724 16729     1 
16725 16727     1 
16725 16728     1 
16725 16729     1 
16726 16733     1 
16726 16734     1 
16726 16735     1 
16727 16730     1 
16727 16731     1 
16727 16732     1 
16728 16730     1 
16728 16731     1 
16728 16732     1 
16729 16736     1 
16729 16737     1 
16729 16738     1 
16730 16733     1 
16730 16734     1 
16730 16735     1 
16731 16733     1 
16731 16734     1 
16731 16735     1 
16732 16739     1 
16732 16740     1 
16732 16741     1 
16733 16736     1 
16733 16737     1 
16733 16738     1 
16734 16736     1 
16734 16737     1 
16734 16738     1 
16735 16742     1 
16735 16743     1 
16735 16744     1 
16736 16739     1 
16736 16740     1 
16736 16741     1 
16737 16739     1 
16737 16740     1 
16737 16741     1 
16738 16745     1 
16738 16746     1 
16738 16747     1 
16739 16742     1 
16739 16743     1 
16739 16744     1 
16740 16742     1 
16740 16743     1 
16740 16744     1 
16741 16748     1 
16741 16749     1 
16741 16750     1 
16742 16745     1 
16742 16746     1 
16742 16747     1 
16743 16745     1 
16743 16746     1 
16743 16747     1 
16745 16748     1 
16745 16749     1 
16745 16750     1 
16746 16748     1 
16746 16749     1 
16746 16750     1 
16751 16768     1 
16751 16769     1 
16751 16773     1 
16752 16756     1 
16752 16757     1 
16752 16758     1 
16752 16760     1 
16752 16761     1 
16752 16762     1 
16752 16764     1 
16752 16765     1 
16752 16766     1 
16752 16770     1 
16753 16755     1 
16753 16759     1 
16753 16763     1 
16753 16768     1 
16753 16769     1 
16753 16773     1 
16754 16755     1 
16754 16759     1 
16754 16763     1 
16754 16768     1 
16754 16769     1 
16754 16773     1 
16755 16760     1 
16755 16761     1 
16755 16762     1 
16755 16764     1 
16755 16765     1 
16755 16766     1 
16755 16767     1 
16756 16759     1 
16756 16763     1 
16757 16759     1 
16757 16763     1 
16758 16759     1 
16758 16763     1 
16759 16764     1 
16759 16765     1 
16759 16766     1 
16759 16767     1 
16760 16763     1 
16761 16763     1 
16762 16763     1 
16763 16767     1 
16767 16771     1 
16767 16772     1 
16767 16774     1 
16768 16770     1 
16769 16770     1 
16770 16776     1 
16770 16777     1 
16770 16778     1 
16771 16775     1 
16772 16775     1 
16773 16775     1 
16774 16779     1 
16774 16780     1 
16774 16786     1 
16775 16781     1 
16775 16787     1 
16775 16788     1 
16775 16789     1 
16776 16779     1 
16776 16780     1 
16776 16786     1 
16777 16779     1 
16777 16780     1 
16777 16786     1 
16778 16782     1 
16778 16783     1 
16778 16790     1 
16779 16781     1 
16779 16787     1 
16779 16788     1 
16779 16789     1 
16780 16784     1 
16780 16785     1 
16780 16787     1 
16780 16788     1 
16780 16789     1 
16780 16795     1 
16781 16786     1 
16781 16796     1 
16781 16797     1 
16781 16798     1 
16782 16784     1 
16782 16785     1 
16782 16795     1 
16783 16799     1 
16783 16800     1 
16783 16801     1 
16784 16796     1 
16784 16797     1 
16784 16798     1 
16785 16796     1 
16785 16797     1 
16785 16798     1 
16786 16791     1 
16786 16792     1 
16787 16790     1 
16788 16790     1 
16789 16793     1 
16789 16794     1 
16789 16842     1 
16790 16843     1 
16790 16844     1 
16790 16845     1 
16791 16793     1 
16791 16794     1 
16791 16842     1 
16792 16846     1 
16792 16847     1 
16792 16848     1 
16793 16843     1 
16793 16844     1 
16793 16845     1 
16794 16843     1 
16794 16844     1 
16794 16845     1 
16795 16802     1 
16795 16803     1 
16795 16804     1 
16796 16799     1 
16796 16800     1 
16796 16801     1 
16797 16799     1 
16797 16800     1 
16797 16801     1 
16798 16805     1 
16798 16806     1 
16798 16807     1 
16799 16802     1 
16799 16803     1 
16799 16804     1 
16800 16802     1 
16800 16803     1 
16800 16804     1 
16801 16808     1 
16801 16809     1 
16801 16810     1 
16802 16805     1 
16802 16806     1 
16802 16807     1 
16803 16805     1 
16803 16806     1 
16803 16807     1 
16804 16811     1 
16804 16812     1 
16804 16813     1 
16805 16808     1 
16805 16809     1 
16805 16810     1 
16806 16808     1 
16806 16809     1 
16806 16810     1 
16807 16814     1 
16807 16815     1 
16808 16811     1 
16808 16812     1 
16808 16813     1 
16809 16811     1 
16809 16812     1 
16809 16813     1 
16810 16816     1 
16810 16817     1 
16811 16814     1 
16811 16815     1 
16812 16814     1 
16812 16815     1 
16813 16818     1 
16813 16819     1 
16813 16820     1 
16814 16816     1 
16814 16817     1 
16815 16821     1 
16815 16822     1 
16815 16823     1 
16816 16818     1 
16816 16819     1 
16816 16820     1 
16817 16824     1 
16817 16825     1 
16817 16826     1 
16818 16821     1 
16818 16822     1 
16818 16823     1 
16819 16821     1 
16819 16822     1 
16819 16823     1 
16820 16827     1 
16820 16828     1 
16820 16829     1 
16821 16824     1 
16821 16825     1 
16821 16826     1 
16822 16824     1 
16822 16825     1 
16822 16826     1 
16823 16830     1 
16823 16831     1 
16823 16832     1 
16824 16827     1 
16824 16828     1 
16824 16829     1 
16825 16827     1 
16825 16828     1 
16825 16829     1 
16826 16833     1 
16826 16834     1 
16826 16835     1 
16827 16830     1 
16827 16831     1 
16827 16832     1 
16828 16830     1 
16828 16831     1 
16828 16832     1 
16829 16836     1 
16829 16837     1 
16829 16838     1 
16830 16833     1 
16830 16834     1 
16830 16835     1 
16831 16833     1 
16831 16834     1 
16831 16835     1 
16832 16839     1 
16832 16840     1 
16832 16841     1 
16833 16836     1 
16833 16837     1 
16833 16838     1 
16834 16836     1 
16834 16837     1 
16834 16838     1 
16836 16839     1 
16836 16840     1 
16836 16841     1 
16837 16839     1 
16837 16840     1 
16837 16841     1 
16842 16849     1 
16842 16850     1 
16842 16851     1 
16843 16846     1 
16843 16847     1 
16843 16848     1 
16844 16846     1 
16844 16847     1 
16844 16848     1 
16845 16852     1 
16845 16853     1 
16845 16854     1 
16846 16849     1 
16846 16850     1 
16846 16851     1 
16847 16849     1 
16847 16850     1 
16847 16851     1 
16848 16855     1 
16848 16856     1 
16848 16857     1 
16849 16852     1 
16849 16853     1 
16849 16854     1 
16850 16852     1 
16850 16853     1 
16850 16854     1 
16851 16858     1 
16851 16859     1 
16851 16860     1 
16852 16855     1 
16852 16856     1 
16852 16857     1 
16853 16855     1 
16853 16856     1 
16853 16857     1 
16854 16861     1 
16854 16862     1 
16854 16863     1 
16855 16858     1 
16855 16859     1 
16855 16860     1 
16856 16858     1 
16856 16859     1 
16856 16860     1 
16857 16864     1 
16857 16865     1 
16857 16866     1 
16858 16861     1 
16858 16862     1 
16858 16863     1 
16859 16861     1 
16859 16862     1 
16859 16863     1 
16860 16867     1 
16860 16868     1 
16860 16869     1 
16861 16864     1 
16861 16865     1 
16861 16866     1 
16862 16864     1 
16862 16865     1 
16862 16866     1 
16863 16870     1 
16863 16871     1 
16863 16872     1 
16864 16867     1 
16864 16868     1 
16864 16869     1 
16865 16867     1 
16865 16868     1 
16865 16869     1 
16866 16873     1 
16866 16874     1 
16866 16875     1 
16867 16870     1 
16867 16871     1 
16867 16872     1 
16868 16870     1 
16868 16871     1 
16868 16872     1 
16869 16876     1 
16869 16877     1 
16869 16878     1 
16870 16873     1 
16870 16874     1 
16870 16875     1 
16871 16873     1 
16871 16874     1 
16871 16875     1 
16872 16879     1 
16872 16880     1 
16872 16881     1 
16873 16876     1 
16873 16877     1 
16873 16878     1 
16874 16876     1 
16874 16877     1 
16874 16878     1 
16875 16882     1 
16875 16883     1 
16875 16884     1 
16876 16879     1 
16876 16880     1 
16876 16881     1 
16877 16879     1 
16877 16880     1 
16877 16881     1 
16879 16882     1 
16879 16883     1 
16879 16884     1 
16880 16882     1 
16880 16883     1 
16880 16884     1 
16885 16902     1 
16885 16903     1 
16885 16907     1 
16886 16890     1 
16886 16891     1 
16886 16892     1 
16886 16894     1 
16886 16895     1 
16886 16896     1 
16886 16898     1 
16886 16899     1 
16886 16900     1 
16886 16904     1 
16887 16889     1 
16887 16893     1 
16887 16897     1 
16887 16902     1 
16887 16903     1 
16887 16907     1 
16888 16889     1 
16888 16893     1 
16888 16897     1 
16888 16902     1 
16888 16903     1 
16888 16907     1 
16889 16894     1 
16889 16895     1 
16889 16896     1 
16889 16898     1 
16889 16899     1 
16889 16900     1 
16889 16901     1 
16890 16893     1 
16890 16897     1 
16891 16893     1 
16891 16897     1 
16892 16893     1 
16892 16897     1 
16893 16898     1 
16893 16899     1 
16893 16900     1 
16893 16901     1 
16894 16897     1 
16895 16897     1 
16896 16897     1 
16897 16901     1 
16901 16905     1 
16901 16906     1 
16901 16908     1 
16902 16904     1 
16903 16904     1 
16904 16910     1 
16904 16911     1 
16904 16912     1 
16905 16909     1 
16906 16909     1 
16907 16909     1 
16908 16913     1 
16908 16914     1 
16908 16920     1 
16909 16915     1 
16909 16921     1 
16909 16922     1 
16909 16923     1 
16910 16913     1 
16910 16914     1 
16910 16920     1 
16911 16913     1 
16911 16914     1 
16911 16920     1 
16912 16916     1 
16912 16917     1 
16912 16924     1 
16913 16915     1 
16913 16921     1 
16913 16922     1 
16913 16923     1 
16914 16918     1 
16914 16919     1 
16914 16921     1 
16914 16922     1 
16914 16923     1 
16914 16929     1 
16915 16920     1 
16915 16930     1 
16915 16931     1 
16915 16932     1 
16916 16918     1 
16916 16919     1 
16916 16929     1 
16917 16933     1 
16917 16934     1 
16917 16935     1 
16918 16930     1 
16918 16931     1 
16918 16932     1 
16919 16930     1 
16919 16931     1 
16919 16932     1 
16920 16925     1 
16920 16926     1 
16921 16924     1 
16922 16924     1 
16923 16927     1 
16923 16928     1 
16923 16976     1 
16924 16977     1 
16924 16978     1 
16924 16979     1 
16925 16927     1 
16925 16928     1 
16925 16976     1 
16926 16980     1 
16926 16981     1 
16926 16982     1 
16927 16977     1 
16927 16978     1 
16927 16979     1 
16928 16977     1 
16928 16978     1 
16928 16979     1 
16929 16936     1 
16929 16937     1 
16929 16938     1 
16930 16933     1 
16930 16934     1 
16930 16935     1 
16931 16933     1 
16931 16934     1 
16931 16935     1 
16932 16939     1 
16932 16940     1 
16932 16941     1 
16933 16936     1 
16933 16937     1 
16933 16938     1 
16934 16936     1 
16934 16937     1 
16934 16938     1 
16935 16942     1 
16935 16943     1 
16935 16944     1 
16936 16939     1 
16936 16940     1 
16936 16941     1 
16937 16939     1 
16937 16940     1 
16937 16941     1 
16938 16945     1 
16938 16946     1 
16938 16947     1 
16939 16942     1 
16939 16943     1 
16939 16944     1 
16940 16942     1 
16940 16943     1 
16940 16944     1 
16941 16948     1 
16941 16949     1 
16942 16945     1 
16942 16946     1 
16942 16947     1 
16943 16945     1 
16943 16946     1 
16943 16947     1 
16944 16950     1 
16944 16951     1 
16945 16948     1 
16945 16949     1 
16946 16948     1 
16946 16949     1 
16947 16952     1 
16947 16953     1 
16947 16954     1 
16948 16950     1 
16948 16951     1 
16949 16955     1 
16949 16956     1 
16949 16957     1 
16950 16952     1 
16950 16953     1 
16950 16954     1 
16951 16958     1 
16951 16959     1 
16951 16960     1 
16952 16955     1 
16952 16956     1 
16952 16957     1 
16953 16955     1 
16953 16956     1 
16953 16957     1 
16954 16961     1 
16954 16962     1 
16954 16963     1 
16955 16958     1 
16955 16959     1 
16955 16960     1 
16956 16958     1 
16956 16959     1 
16956 16960     1 
16957 16964     1 
16957 16965     1 
16957 16966     1 
16958 16961     1 
16958 16962     1 
16958 16963     1 
16959 16961     1 
16959 16962     1 
16959 16963     1 
16960 16967     1 
16960 16968     1 
16960 16969     1 
16961 16964     1 
16961 16965     1 
16961 16966     1 
16962 16964     1 
16962 16965     1 
16962 16966     1 
16963 16970     1 
16963 16971     1 
16963 16972     1 
16964 16967     1 
16964 16968     1 
16964 16969     1 
16965 16967     1 
16965 16968     1 
16965 16969     1 
16966 16973     1 
16966 16974     1 
16966 16975     1 
16967 16970     1 
16967 16971     1 
16967 16972     1 
16968 16970     1 
16968 16971     1 
16968 16972     1 
16970 16973     1 
16970 16974     1 
16970 16975     1 
16971 16973     1 
16971 16974     1 
16971 16975     1 
16976 16983     1 
16976 16984     1 
16976 16985     1 
16977 16980     1 
16977 16981     1 
16977 16982     1 
16978 16980     1 
16978 16981     1 
16978 16982     1 
16979 16986     1 
16979 16987     1 
16979 16988     1 
16980 16983     1 
16980 16984     1 
16980 16985     1 
16981 16983     1 
16981 16984     1 
16981 16985     1 
16982 16989     1 
16982 16990     1 
16982 16991     1 
16983 16986     1 
16983 16987     1 
16983 16988     1 
16984 16986     1 
16984 16987     1 
16984 16988     1 
16985 16992     1 
16985 16993     1 
16985 16994     1 
16986 16989     1 
16986 16990     1 
16986 16991     1 
16987 16989     1 
16987 16990     1 
16987 16991     1 
16988 16995     1 
16988 16996     1 
16988 16997     1 
16989 16992     1 
16989 16993     1 
16989 16994     1 
16990 16992     1 
16990 16993     1 
16990 16994     1 
16991 16998     1 
16991 16999     1 
16991 17000     1 
16992 16995     1 
16992 16996     1 
16992 16997     1 
16993 16995     1 
16993 16996     1 
16993 16997     1 
16994 17001     1 
16994 17002     1 
16994 17003     1 
16995 16998     1 
16995 16999     1 
16995 17000     1 
16996 16998     1 
16996 16999     1 
16996 17000     1 
16997 17004     1 
16997 17005     1 
16997 17006     1 
16998 17001     1 
16998 17002     1 
16998 17003     1 
16999 17001     1 
16999 17002     1 
16999 17003     1 
17000 17007     1 
17000 17008     1 
17000 17009     1 
17001 17004     1 
17001 17005     1 
17001 17006     1 
17002 17004     1 
17002 17005     1 
17002 17006     1 
17003 17010     1 
17003 17011     1 
17003 17012     1 
17004 17007     1 
17004 17008     1 
17004 17009     1 
17005 17007     1 
17005 17008     1 
17005 17009     1 
17006 17013     1 
17006 17014     1 
17006 17015     1 
17007 17010     1 
17007 17011     1 
17007 17012     1 
17008 17010     1 
17008 17011     1 
17008 17012     1 
17009 17016     1 
17009 17017     1 
17009 17018     1 
17010 17013     1 
17010 17014     1 
17010 17015     1 
17011 17013     1 
17011 17014     1 
17011 17015     1 
17013 17016     1 
17013 17017     1 
17013 17018     1 
17014 17016     1 
17014 17017     1 
17014 17018     1 
17019 17036     1 
17019 17037     1 
17019 17041     1 
17020 17024     1 
17020 17025     1 
17020 17026     1 
17020 17028     1 
17020 17029     1 
17020 17030     1 
17020 17032     1 
17020 17033     1 
17020 17034     1 
17020 17038     1 
17021 17023     1 
17021 17027     1 
17021 17031     1 
17021 17036     1 
17021 17037     1 
17021 17041     1 
17022 17023     1 
17022 17027     1 
17022 17031     1 
17022 17036     1 
17022 17037     1 
17022 17041     1 
17023 17028     1 
17023 17029     1 
17023 17030     1 
17023 17032     1 
17023 17033     1 
17023 17034     1 
17023 17035     1 
17024 17027     1 
17024 17031     1 
17025 17027     1 
17025 17031     1 
17026 17027     1 
17026 17031     1 
17027 17032     1 
17027 17033     1 
17027 17034     1 
17027 17035     1 
17028 17031     1 
17029 17031     1 
17030 17031     1 
17031 17035     1 
17035 17039     1 
17035 17040     1 
17035 17042     1 
17036 17038     1 
17037 17038     1 
17038 17044     1 
17038 17045     1 
17038 17046     1 
17039 17043     1 
17040 17043     1 
17041 17043     1 
17042 17047     1 
17042 17048     1 
17042 17054     1 
17043 17049     1 
17043 17055     1 
17043 17056     1 
17043 17057     1 
17044 17047     1 
17044 17048     1 
17044 17054     1 
17045 17047     1 
17045 17048     1 
17045 17054     1 
17046 17050     1 
17046 17051     1 
17046 17058     1 
17047 17049     1 
17047 17055     1 
17047 17056     1 
17047 17057     1 
17048 17052     1 
17048 17053     1 
17048 17055     1 
17048 17056     1 
17048 17057     1 
17048 17063     1 
17049 17054     1 
17049 17064     1 
17049 17065     1 
17049 17066     1 
17050 17052     1 
17050 17053     1 
17050 17063     1 
17051 17067     1 
17051 17068     1 
17051 17069     1 
17052 17064     1 
17052 17065     1 
17052 17066     1 
17053 17064     1 
17053 17065     1 
17053 17066     1 
17054 17059     1 
17054 17060     1 
17055 17058     1 
17056 17058     1 
17057 17061     1 
17057 17062     1 
17057 17110     1 
17058 17111     1 
17058 17112     1 
17058 17113     1 
17059 17061     1 
17059 17062     1 
17059 17110     1 
17060 17114     1 
17060 17115     1 
17060 17116     1 
17061 17111     1 
17061 17112     1 
17061 17113     1 
17062 17111     1 
17062 17112     1 
17062 17113     1 
17063 17070     1 
17063 17071     1 
17063 17072     1 
17064 17067     1 
17064 17068     1 
17064 17069     1 
17065 17067     1 
17065 17068     1 
17065 17069     1 
17066 17073     1 
17066 17074     1 
17066 17075     1 
17067 17070     1 
17067 17071     1 
17067 17072     1 
17068 17070     1 
17068 17071     1 
17068 17072     1 
17069 17076     1 
17069 17077     1 
17069 17078     1 
17070 17073     1 
17070 17074     1 
17070 17075     1 
17071 17073     1 
17071 17074     1 
17071 17075     1 
17072 17079     1 
17072 17080     1 
17072 17081     1 
17073 17076     1 
17073 17077     1 
17073 17078     1 
17074 17076     1 
17074 17077     1 
17074 17078     1 
17075 17082     1 
17075 17083     1 
17076 17079     1 
17076 17080     1 
17076 17081     1 
17077 17079     1 
17077 17080     1 
17077 17081     1 
17078 17084     1 
17078 17085     1 
17079 17082     1 
17079 17083     1 
17080 17082     1 
17080 17083     1 
17081 17086     1 
17081 17087     1 
17081 17088     1 
17082 17084     1 
17082 17085     1 
17083 17089     1 
17083 17090     1 
17083 17091     1 
17084 17086     1 
17084 17087     1 
17084 17088     1 
17085 17092     1 
17085 17093     1 
17085 17094     1 
17086 17089     1 
17086 17090     1 
17086 17091     1 
17087 17089     1 
17087 17090     1 
17087 17091     1 
17088 17095     1 
17088 17096     1 
17088 17097     1 
17089 17092     1 
17089 17093     1 
17089 17094     1 
17090 17092     1 
17090 17093     1 
17090 17094     1 
17091 17098     1 
17091 17099     1 
17091 17100     1 
17092 17095     1 
17092 17096     1 
17092 17097     1 
17093 17095     1 
17093 17096     1 
17093 17097     1 
17094 17101     1 
17094 17102     1 
17094 17103     1 
17095 17098     1 
17095 17099     1 
17095 17100     1 
17096 17098     1 
17096 17099     1 
17096 17100     1 
17097 17104     1 
17097 17105     1 
17097 17106     1 
17098 17101     1 
17098 17102     1 
17098 17103     1 
17099 17101     1 
17099 17102     1 
17099 17103     1 
17100 17107     1 
17100 17108     1 
17100 17109     1 
17101 17104     1 
17101 17105     1 
17101 17106     1 
17102 17104     1 
17102 17105     1 
17102 17106     1 
17104 17107     1 
17104 17108     1 
17104 17109     1 
17105 17107     1 
17105 17108     1 
17105 17109     1 
17110 17117     1 
17110 17118     1 
17110 17119     1 
17111 17114     1 
17111 17115     1 
17111 17116     1 
17112 17114     1 
17112 17115     1 
17112 17116     1 
17113 17120     1 
17113 17121     1 
17113 17122     1 
17114 17117     1 
17114 17118     1 
17114 17119     1 
17115 17117     1 
17115 17118     1 
17115 17119     1 
17116 17123     1 
17116 17124     1 
17116 17125     1 
17117 17120     1 
17117 17121     1 
17117 17122     1 
17118 17120     1 
17118 17121     1 
17118 17122     1 
17119 17126     1 
17119 17127     1 
17119 17128     1 
17120 17123     1 
17120 17124     1 
17120 17125     1 
17121 17123     1 
17121 17124     1 
17121 17125     1 
17122 17129     1 
17122 17130     1 
17122 17131     1 
17123 17126     1 
17123 17127     1 
17123 17128     1 
17124 17126     1 
17124 17127     1 
17124 17128     1 
17125 17132     1 
17125 17133     1 
17125 17134     1 
17126 17129     1 
17126 17130     1 
17126 17131     1 
17127 17129     1 
17127 17130     1 
17127 17131     1 
17128 17135     1 
17128 17136     1 
17128 17137     1 
17129 17132     1 
17129 17133     1 
17129 17134     1 
17130 17132     1 
17130 17133     1 
17130 17134     1 
17131 17138     1 
17131 17139     1 
17131 17140     1 
17132 17135     1 
17132 17136     1 
17132 17137     1 
17133 17135     1 
17133 17136     1 
17133 17137     1 
17134 17141     1 
17134 17142     1 
17134 17143     1 
17135 17138     1 
17135 17139     1 
17135 17140     1 
17136 17138     1 
17136 17139     1 
17136 17140     1 
17137 17144     1 
17137 17145     1 
17137 17146     1 
17138 17141     1 
17138 17142     1 
17138 17143     1 
17139 17141     1 
17139 17142     1 
17139 17143     1 
17140 17147     1 
17140 17148     1 
17140 17149     1 
17141 17144     1 
17141 17145     1 
17141 17146     1 
17142 17144     1 
17142 17145     1 
17142 17146     1 
17143 17150     1 
17143 17151     1 
17143 17152     1 
17144 17147     1 
17144 17148     1 
17144 17149     1 
17145 17147     1 
17145 17148     1 
17145 17149     1 
17147 17150     1 
17147 17151     1 
17147 17152     1 
17148 17150     1 
17148 17151     1 
17148 17152     1 
17153 17170     1 
17153 17171     1 
17153 17175     1 
17154 17158     1 
17154 17159     1 
17154 17160     1 
17154 17162     1 
17154 17163     1 
17154 17164     1 
17154 17166     1 
17154 17167     1 
17154 17168     1 
17154 17172     1 
17155 17157     1 
17155 17161     1 
17155 17165     1 
17155 17170     1 
17155 17171     1 
17155 17175     1 
17156 17157     1 
17156 17161     1 
17156 17165     1 
17156 17170     1 
17156 17171     1 
17156 17175     1 
17157 17162     1 
17157 17163     1 
17157 17164     1 
17157 17166     1 
17157 17167     1 
17157 17168     1 
17157 17169     1 
17158 17161     1 
17158 17165     1 
17159 17161     1 
17159 17165     1 
17160 17161     1 
17160 17165     1 
17161 17166     1 
17161 17167     1 
17161 17168     1 
17161 17169     1 
17162 17165     1 
17163 17165     1 
17164 17165     1 
17165 17169     1 
17169 17173     1 
17169 17174     1 
17169 17176     1 
17170 17172     1 
17171 17172     1 
17172 17178     1 
17172 17179     1 
17172 17180     1 
17173 17177     1 
17174 17177     1 
17175 17177     1 
17176 17181     1 
17176 17182     1 
17176 17188     1 
17177 17183     1 
17177 17189     1 
17177 17190     1 
17177 17191     1 
17178 17181     1 
17178 17182     1 
17178 17188     1 
17179 17181     1 
17179 17182     1 
17179 17188     1 
17180 17184     1 
17180 17185     1 
17180 17192     1 
17181 17183     1 
17181 17189     1 
17181 17190     1 
17181 17191     1 
17182 17186     1 
17182 17187     1 
17182 17189     1 
17182 17190     1 
17182 17191     1 
17182 17197     1 
17183 17188     1 
17183 17198     1 
17183 17199     1 
17183 17200     1 
17184 17186     1 
17184 17187     1 
17184 17197     1 
17185 17201     1 
17185 17202     1 
17185 17203     1 
17186 17198     1 
17186 17199     1 
17186 17200     1 
17187 17198     1 
17187 17199     1 
17187 17200     1 
17188 17193     1 
17188 17194     1 
17189 17192     1 
17190 17192     1 
17191 17195     1 
17191 17196     1 
17191 17244     1 
17192 17245     1 
17192 17246     1 
17192 17247     1 
17193 17195     1 
17193 17196     1 
17193 17244     1 
17194 17248     1 
17194 17249     1 
17194 17250     1 
17195 17245     1 
17195 17246     1 
17195 17247     1 
17196 17245     1 
17196 17246     1 
17196 17247     1 
17197 17204     1 
17197 17205     1 
17197 17206     1 
17198 17201     1 
17198 17202     1 
17198 17203     1 
17199 17201     1 
17199 17202     1 
17199 17203     1 
17200 17207     1 
17200 17208     1 
17200 17209     1 
17201 17204     1 
17201 17205     1 
17201 17206     1 
17202 17204     1 
17202 17205     1 
17202 17206     1 
17203 17210     1 
17203 17211     1 
17203 17212     1 
17204 17207     1 
17204 17208     1 
17204 17209     1 
17205 17207     1 
17205 17208     1 
17205 17209     1 
17206 17213     1 
17206 17214     1 
17206 17215     1 
17207 17210     1 
17207 17211     1 
17207 17212     1 
17208 17210     1 
17208 17211     1 
17208 17212     1 
17209 17216     1 
17209 17217     1 
17210 17213     1 
17210 17214     1 
17210 17215     1 
17211 17213     1 
17211 17214     1 
17211 17215     1 
17212 17218     1 
17212 17219     1 
17213 17216     1 
17213 17217     1 
17214 17216     1 
17214 17217     1 
17215 17220     1 
17215 17221     1 
17215 17222     1 
17216 17218     1 
17216 17219     1 
17217 17223     1 
17217 17224     1 
17217 17225     1 
17218 17220     1 
17218 17221     1 
17218 17222     1 
17219 17226     1 
17219 17227     1 
17219 17228     1 
17220 17223     1 
17220 17224     1 
17220 17225     1 
17221 17223     1 
17221 17224     1 
17221 17225     1 
17222 17229     1 
17222 17230     1 
17222 17231     1 
17223 17226     1 
17223 17227     1 
17223 17228     1 
17224 17226     1 
17224 17227     1 
17224 17228     1 
17225 17232     1 
17225 17233     1 
17225 17234     1 
17226 17229     1 
17226 17230     1 
17226 17231     1 
17227 17229     1 
17227 17230     1 
17227 17231     1 
17228 17235     1 
17228 17236     1 
17228 17237     1 
17229 17232     1 
17229 17233     1 
17229 17234     1 
17230 17232     1 
17230 17233     1 
17230 17234     1 
17231 17238     1 
17231 17239     1 
17231 17240     1 
17232 17235     1 
17232 17236     1 
17232 17237     1 
17233 17235     1 
17233 17236     1 
17233 17237     1 
17234 17241     1 
17234 17242     1 
17234 17243     1 
17235 17238     1 
17235 17239     1 
17235 17240     1 
17236 17238     1 
17236 17239     1 
17236 17240     1 
17238 17241     1 
17238 17242     1 
17238 17243     1 
17239 17241     1 
17239 17242     1 
17239 17243     1 
17244 17251     1 
17244 17252     1 
17244 17253     1 
17245 17248     1 
17245 17249     1 
17245 17250     1 
17246 17248     1 
17246 17249     1 
17246 17250     1 
17247 17254     1 
17247 17255     1 
17247 17256     1 
17248 17251     1 
17248 17252     1 
17248 17253     1 
17249 17251     1 
17249 17252     1 
17249 17253     1 
17250 17257     1 
17250 17258     1 
17250 17259     1 
17251 17254     1 
17251 17255     1 
17251 17256     1 
17252 17254     1 
17252 17255     1 
17252 17256     1 
17253 17260     1 
17253 17261     1 
17253 17262     1 
17254 17257     1 
17254 17258     1 
17254 17259     1 
17255 17257     1 
17255 17258     1 
17255 17259     1 
17256 17263     1 
17256 17264     1 
17256 17265     1 
17257 17260     1 
17257 17261     1 
17257 17262     1 
17258 17260     1 
17258 17261     1 
17258 17262     1 
17259 17266     1 
17259 17267     1 
17259 17268     1 
17260 17263     1 
17260 17264     1 
17260 17265     1 
17261 17263     1 
17261 17264     1 
17261 17265     1 
17262 17269     1 
17262 17270     1 
17262 17271     1 
17263 17266     1 
17263 17267     1 
17263 17268     1 
17264 17266     1 
17264 17267     1 
17264 17268     1 
17265 17272     1 
17265 17273     1 
17265 17274     1 
17266 17269     1 
17266 17270     1 
17266 17271     1 
17267 17269     1 
17267 17270     1 
17267 17271     1 
17268 17275     1 
17268 17276     1 
17268 17277     1 
17269 17272     1 
17269 17273     1 
17269 17274     1 
17270 17272     1 
17270 17273     1 
17270 17274     1 
17271 17278     1 
17271 17279     1 
17271 17280     1 
17272 17275     1 
17272 17276     1 
17272 17277     1 
17273 17275     1 
17273 17276     1 
17273 17277     1 
17274 17281     1 
17274 17282     1 
17274 17283     1 
17275 17278     1 
17275 17279     1 
17275 17280     1 
17276 17278     1 
17276 17279     1 
17276 17280     1 
17277 17284     1 
17277 17285     1 
17277 17286     1 
17278 17281     1 
17278 17282     1 
17278 17283     1 
17279 17281     1 
17279 17282     1 
17279 17283     1 
17281 17284     1 
17281 17285     1 
17281 17286     1 
17282 17284     1 
17282 17285     1 
17282 17286     1 
17287 17304     1 
17287 17305     1 
17287 17309     1 
17288 17292     1 
17288 17293     1 
17288 17294     1 
17288 17296     1 
17288 17297     1 
17288 17298     1 
17288 17300     1 
17288 17301     1 
17288 17302     1 
17288 17306     1 
17289 17291     1 
17289 17295     1 
17289 17299     1 
17289 17304     1 
17289 17305     1 
17289 17309     1 
17290 17291     1 
17290 17295     1 
17290 17299     1 
17290 17304     1 
17290 17305     1 
17290 17309     1 
17291 17296     1 
17291 17297     1 
17291 17298     1 
17291 17300     1 
17291 17301     1 
17291 17302     1 
17291 17303     1 
17292 17295     1 
17292 17299     1 
17293 17295     1 
17293 17299     1 
17294 17295     1 
17294 17299     1 
17295 17300     1 
17295 17301     1 
17295 17302     1 
17295 17303     1 
17296 17299     1 
17297 17299     1 
17298 17299     1 
17299 17303     1 
17303 17307     1 
17303 17308     1 
17303 17310     1 
17304 17306     1 
17305 17306     1 
17306 17312     1 
17306 17313     1 
17306 17314     1 
17307 17311     1 
17308 17311     1 
17309 17311     1 
17310 17315     1 
17310 17316     1 
17310 17322     1 
17311 17317     1 
17311 17323     1 
17311 17324     1 
17311 17325     1 
17312 17315     1 
17312 17316     1 
17312 17322     1 
17313 17315     1 
17313 17316     1 
17313 17322     1 
17314 17318     1 
17314 17319     1 
17314 17326     1 
17315 17317     1 
17315 17323     1 
17315 17324     1 
17315 17325     1 
17316 17320     1 
17316 17321     1 
17316 17323     1 
17316 17324     1 
17316 17325     1 
17316 17331     1 
17317 17322     1 
17317 17332     1 
17317 17333     1 
17317 17334     1 
17318 17320     1 
17318 17321     1 
17318 17331     1 
17319 17335     1 
17319 17336     1 
17319 17337     1 
17320 17332     1 
17320 17333     1 
17320 17334     1 
17321 17332     1 
17321 17333     1 
17321 17334     1 
17322 17327     1 
17322 17328     1 
17323 17326     1 
17324 17326     1 
17325 17329     1 
17325 17330     1 
17325 17378     1 
17326 17379     1 
17326 17380     1 
17326 17381     1 
17327 17329     1 
17327 17330     1 
17327 17378     1 
17328 17382     1 
17328 17383     1 
17328 17384     1 
17329 17379     1 
17329 17380     1 
17329 17381     1 
17330 17379     1 
17330 17380     1 
17330 17381     1 
17331 17338     1 
17331 17339     1 
17331 17340     1 
17332 17335     1 
17332 17336     1 
17332 17337     1 
17333 17335     1 
17333 17336     1 
17333 17337     1 
17334 17341     1 
17334 17342     1 
17334 17343     1 
17335 17338     1 
17335 17339     1 
17335 17340     1 
17336 17338     1 
17336 17339     1 
17336 17340     1 
17337 17344     1 
17337 17345     1 
17337 17346     1 
17338 17341     1 
17338 17342     1 
17338 17343     1 
17339 17341     1 
17339 17342     1 
17339 17343     1 
17340 17347     1 
17340 17348     1 
17340 17349     1 
17341 17344     1 
17341 17345     1 
17341 17346     1 
17342 17344     1 
17342 17345     1 
17342 17346     1 
17343 17350     1 
17343 17351     1 
17344 17347     1 
17344 17348     1 
17344 17349     1 
17345 17347     1 
17345 17348     1 
17345 17349     1 
17346 17352     1 
17346 17353     1 
17347 17350     1 
17347 17351     1 
17348 17350     1 
17348 17351     1 
17349 17354     1 
17349 17355     1 
17349 17356     1 
17350 17352     1 
17350 17353     1 
17351 17357     1 
17351 17358     1 
17351 17359     1 
17352 17354     1 
17352 17355     1 
17352 17356     1 
17353 17360     1 
17353 17361     1 
17353 17362     1 
17354 17357     1 
17354 17358     1 
17354 17359     1 
17355 17357     1 
17355 17358     1 
17355 17359     1 
17356 17363     1 
17356 17364     1 
17356 17365     1 
17357 17360     1 
17357 17361     1 
17357 17362     1 
17358 17360     1 
17358 17361     1 
17358 17362     1 
17359 17366     1 
17359 17367     1 
17359 17368     1 
17360 17363     1 
17360 17364     1 
17360 17365     1 
17361 17363     1 
17361 17364     1 
17361 17365     1 
17362 17369     1 
17362 17370     1 
17362 17371     1 
17363 17366     1 
17363 17367     1 
17363 17368     1 
17364 17366     1 
17364 17367     1 
17364 17368     1 
17365 17372     1 
17365 17373     1 
17365 17374     1 
17366 17369     1 
17366 17370     1 
17366 17371     1 
17367 17369     1 
17367 17370     1 
17367 17371     1 
17368 17375     1 
17368 17376     1 
17368 17377     1 
17369 17372     1 
17369 17373     1 
17369 17374     1 
17370 17372     1 
17370 17373     1 
17370 17374     1 
17372 17375     1 
17372 17376     1 
17372 17377     1 
17373 17375     1 
17373 17376     1 
17373 17377     1 
17378 17385     1 
17378 17386     1 
17378 17387     1 
17379 17382     1 
17379 17383     1 
17379 17384     1 
17380 17382     1 
17380 17383     1 
17380 17384     1 
17381 17388     1 
17381 17389     1 
17381 17390     1 
17382 17385     1 
17382 17386     1 
17382 17387     1 
17383 17385     1 
17383 17386     1 
17383 17387     1 
17384 17391     1 
17384 17392     1 
17384 17393     1 
17385 17388     1 
17385 17389     1 
17385 17390     1 
17386 17388     1 
17386 17389     1 
17386 17390     1 
17387 17394     1 
17387 17395     1 
17387 17396     1 
17388 17391     1 
17388 17392     1 
17388 17393     1 
17389 17391     1 
17389 17392     1 
17389 17393     1 
17390 17397     1 
17390 17398     1 
17390 17399     1 
17391 17394     1 
17391 17395     1 
17391 17396     1 
17392 17394     1 
17392 17395     1 
17392 17396     1 
17393 17400     1 
17393 17401     1 
17393 17402     1 
17394 17397     1 
17394 17398     1 
17394 17399     1 
17395 17397     1 
17395 17398     1 
17395 17399     1 
17396 17403     1 
17396 17404     1 
17396 17405     1 
17397 17400     1 
17397 17401     1 
17397 17402     1 
17398 17400     1 
17398 17401     1 
17398 17402     1 
17399 17406     1 
17399 17407     1 
17399 17408     1 
17400 17403     1 
17400 17404     1 
17400 17405     1 
17401 17403     1 
17401 17404     1 
17401 17405     1 
17402 17409     1 
17402 17410     1 
17402 17411     1 
17403 17406     1 
17403 17407     1 
17403 17408     1 
17404 17406     1 
17404 17407     1 
17404 17408     1 
17405 17412     1 
17405 17413     1 
17405 17414     1 
17406 17409     1 
17406 17410     1 
17406 17411     1 
17407 17409     1 
17407 17410     1 
17407 17411     1 
17408 17415     1 
17408 17416     1 
17408 17417     1 
17409 17412     1 
17409 17413     1 
17409 17414     1 
17410 17412     1 
17410 17413     1 
17410 17414     1 
17411 17418     1 
17411 17419     1 
17411 17420     1 
17412 17415     1 
17412 17416     1 
17412 17417     1 
17413 17415     1 
17413 17416     1 
17413 17417     1 
17415 17418     1 
17415 17419     1 
17415 17420     1 
17416 17418     1 
17416 17419     1 
17416 17420     1 
17421 17438     1 
17421 17439     1 
17421 17443     1 
17422 17426     1 
17422 17427     1 
17422 17428     1 
17422 17430     1 
17422 17431     1 
17422 17432     1 
17422 17434     1 
17422 17435     1 
17422 17436     1 
17422 17440     1 
17423 17425     1 
17423 17429     1 
17423 17433     1 
17423 17438     1 
17423 17439     1 
17423 17443     1 
17424 17425     1 
17424 17429     1 
17424 17433     1 
17424 17438     1 
17424 17439     1 
17424 17443     1 
17425 17430     1 
17425 17431     1 
17425 17432     1 
17425 17434     1 
17425 17435     1 
17425 17436     1 
17425 17437     1 
17426 17429     1 
17426 17433     1 
17427 17429     1 
17427 17433     1 
17428 17429     1 
17428 17433     1 
17429 17434     1 
17429 17435     1 
17429 17436     1 
17429 17437     1 
17430 17433     1 
17431 17433     1 
17432 17433     1 
17433 17437     1 
17437 17441     1 
17437 17442     1 
17437 17444     1 
17438 17440     1 
17439 17440     1 
17440 17446     1 
17440 17447     1 
17440 17448     1 
17441 17445     1 
17442 17445     1 
17443 17445     1 
17444 17449     1 
17444 17450     1 
17444 17456     1 
17445 17451     1 
17445 17457     1 
17445 17458     1 
17445 17459     1 
17446 17449     1 
17446 17450     1 
17446 17456     1 
17447 17449     1 
17447 17450     1 
17447 17456     1 
17448 17452     1 
17448 17453     1 
17448 17460     1 
17449 17451     1 
17449 17457     1 
17449 17458     1 
17449 17459     1 
17450 17454     1 
17450 17455     1 
17450 17457     1 
17450 17458     1 
17450 17459     1 
17450 17465     1 
17451 17456     1 
17451 17466     1 
17451 17467     1 
17451 17468     1 
17452 17454     1 
17452 17455     1 
17452 17465     1 
17453 17469     1 
17453 17470     1 
17453 17471     1 
17454 17466     1 
17454 17467     1 
17454 17468     1 
17455 17466     1 
17455 17467     1 
17455 17468     1 
17456 17461     1 
17456 17462     1 
17457 17460     1 
17458 17460     1 
17459 17463     1 
17459 17464     1 
17459 17512     1 
17460 17513     1 
17460 17514     1 
17460 17515     1 
17461 17463     1 
17461 17464     1 
17461 17512     1 
17462 17516     1 
17462 17517     1 
17462 17518     1 
17463 17513     1 
17463 17514     1 
17463 17515     1 
17464 17513     1 
17464 17514     1 
17464 17515     1 
17465 17472     1 
17465 17473     1 
17465 17474     1 
17466 17469     1 
17466 17470     1 
17466 17471     1 
17467 17469     1 
17467 17470     1 
17467 17471     1 
17468 17475     1 
17468 17476     1 
17468 17477     1 
17469 17472     1 
17469 17473     1 
17469 17474     1 
17470 17472     1 
17470 17473     1 
17470 17474     1 
17471 17478     1 
17471 17479     1 
17471 17480     1 
17472 17475     1 
17472 17476     1 
17472 17477     1 
17473 17475     1 
17473 17476     1 
17473 17477     1 
17474 17481     1 
17474 17482     1 
17474 17483     1 
17475 17478     1 
17475 17479     1 
17475 17480     1 
17476 17478     1 
17476 17479     1 
17476 17480     1 
17477 17484     1 
17477 17485     1 
17478 17481     1 
17478 17482     1 
17478 17483     1 
17479 17481     1 
17479 17482     1 
17479 17483     1 
17480 17486     1 
17480 17487     1 
17481 17484     1 
17481 17485     1 
17482 17484     1 
17482 17485     1 
17483 17488     1 
17483 17489     1 
17483 17490     1 
17484 17486     1 
17484 17487     1 
17485 17491     1 
17485 17492     1 
17485 17493     1 
17486 17488     1 
17486 17489     1 
17486 17490     1 
17487 17494     1 
17487 17495     1 
17487 17496     1 
17488 17491     1 
17488 17492     1 
17488 17493     1 
17489 17491     1 
17489 17492     1 
17489 17493     1 
17490 17497     1 
17490 17498     1 
17490 17499     1 
17491 17494     1 
17491 17495     1 
17491 17496     1 
17492 17494     1 
17492 17495     1 
17492 17496     1 
17493 17500     1 
17493 17501     1 
17493 17502     1 
17494 17497     1 
17494 17498     1 
17494 17499     1 
17495 17497     1 
17495 17498     1 
17495 17499     1 
17496 17503     1 
17496 17504     1 
17496 17505     1 
17497 17500     1 
17497 17501     1 
17497 17502     1 
17498 17500     1 
17498 17501     1 
17498 17502     1 
17499 17506     1 
17499 17507     1 
17499 17508     1 
17500 17503     1 
17500 17504     1 
17500 17505     1 
17501 17503     1 
17501 17504     1 
17501 17505     1 
17502 17509     1 
17502 17510     1 
17502 17511     1 
17503 17506     1 
17503 17507     1 
17503 17508     1 
17504 17506     1 
17504 17507     1 
17504 17508     1 
17506 17509     1 
17506 17510     1 
17506 17511     1 
17507 17509     1 
17507 17510     1 
17507 17511     1 
17512 17519     1 
17512 17520     1 
17512 17521     1 
17513 17516     1 
17513 17517     1 
17513 17518     1 
17514 17516     1 
17514 17517     1 
17514 17518     1 
17515 17522     1 
17515 17523     1 
17515 17524     1 
17516 17519     1 
17516 17520     1 
17516 17521     1 
17517 17519     1 
17517 17520     1 
17517 17521     1 
17518 17525     1 
17518 17526     1 
17518 17527     1 
17519 17522     1 
17519 17523     1 
17519 17524     1 
17520 17522     1 
17520 17523     1 
17520 17524     1 
17521 17528     1 
17521 17529     1 
17521 17530     1 
17522 17525     1 
17522 17526     1 
17522 17527     1 
17523 17525     1 
17523 17526     1 
17523 17527     1 
17524 17531     1 
17524 17532     1 
17524 17533     1 
17525 17528     1 
17525 17529     1 
17525 17530     1 
17526 17528     1 
17526 17529     1 
17526 17530     1 
17527 17534     1 
17527 17535     1 
17527 17536     1 
17528 17531     1 
17528 17532     1 
17528 17533     1 
17529 17531     1 
17529 17532     1 
17529 17533     1 
17530 17537     1 
17530 17538     1 
17530 17539     1 
17531 17534     1 
17531 17535     1 
17531 17536     1 
17532 17534     1 
17532 17535     1 
17532 17536     1 
17533 17540     1 
17533 17541     1 
17533 17542     1 
17534 17537     1 
17534 17538     1 
17534 17539     1 
17535 17537     1 
17535 17538     1 
17535 17539     1 
17536 17543     1 
17536 17544     1 
17536 17545     1 
17537 17540     1 
17537 17541     1 
17537 17542     1 
17538 17540     1 
17538 17541     1 
17538 17542     1 
17539 17546     1 
17539 17547     1 
17539 17548     1 
17540 17543     1 
17540 17544     1 
17540 17545     1 
17541 17543     1 
17541 17544     1 
17541 17545     1 
17542 17549     1 
17542 17550     1 
17542 17551     1 
17543 17546     1 
17543 17547     1 
17543 17548     1 
17544 17546     1 
17544 17547     1 
17544 17548     1 
17545 17552     1 
17545 17553     1 
17545 17554     1 
17546 17549     1 
17546 17550     1 
17546 17551     1 
17547 17549     1 
17547 17550     1 
17547 17551     1 
17549 17552     1 
17549 17553     1 
17549 17554     1 
17550 17552     1 
17550 17553     1 
17550 17554     1 
17555 17572     1 
17555 17573     1 
17555 17577     1 
17556 17560     1 
17556 17561     1 
17556 17562     1 
17556 17564     1 
17556 17565     1 
17556 17566     1 
17556 17568     1 
17556 17569     1 
17556 17570     1 
17556 17574     1 
17557 17559     1 
17557 17563     1 
17557 17567     1 
17557 17572     1 
17557 17573     1 
17557 17577     1 
17558 17559     1 
17558 17563     1 
17558 17567     1 
17558 17572     1 
17558 17573     1 
17558 17577     1 
17559 17564     1 
17559 17565     1 
17559 17566     1 
17559 17568     1 
17559 17569     1 
17559 17570     1 
17559 17571     1 
17560 17563     1 
17560 17567     1 
17561 17563     1 
17561 17567     1 
17562 17563     1 
17562 17567     1 
17563 17568     1 
17563 17569     1 
17563 17570     1 
17563 17571     1 
17564 17567     1 
17565 17567     1 
17566 17567     1 
17567 17571     1 
17571 17575     1 
17571 17576     1 
17571 17578     1 
17572 17574     1 
17573 17574     1 
17574 17580     1 
17574 17581     1 
17574 17582     1 
17575 17579     1 
17576 17579     1 
17577 17579     1 
17578 17583     1 
17578 17584     1 
17578 17590     1 
17579 17585     1 
17579 17591     1 
17579 17592     1 
17579 17593     1 
17580 17583     1 
17580 17584     1 
17580 17590     1 
17581 17583     1 
17581 17584     1 
17581 17590     1 
17582 17586     1 
17582 17587     1 
17582 17594     1 
17583 17585     1 
17583 17591     1 
17583 17592     1 
17583 17593     1 
17584 17588     1 
17584 17589     1 
17584 17591     1 
17584 17592     1 
17584 17593     1 
17584 17599     1 
17585 17590     1 
17585 17600     1 
17585 17601     1 
17585 17602     1 
17586 17588     1 
17586 17589     1 
17586 17599     1 
17587 17603     1 
17587 17604     1 
17587 17605     1 
17588 17600     1 
17588 17601     1 
17588 17602     1 
17589 17600     1 
17589 17601     1 
17589 17602     1 
17590 17595     1 
17590 17596     1 
17591 17594     1 
17592 17594     1 
17593 17597     1 
17593 17598     1 
17593 17646     1 
17594 17647     1 
17594 17648     1 
17594 17649     1 
17595 17597     1 
17595 17598     1 
17595 17646     1 
17596 17650     1 
17596 17651     1 
17596 17652     1 
17597 17647     1 
17597 17648     1 
17597 17649     1 
17598 17647     1 
17598 17648     1 
17598 17649     1 
17599 17606     1 
17599 17607     1 
17599 17608     1 
17600 17603     1 
17600 17604     1 
17600 17605     1 
17601 17603     1 
17601 17604     1 
17601 17605     1 
17602 17609     1 
17602 17610     1 
17602 17611     1 
17603 17606     1 
17603 17607     1 
17603 17608     1 
17604 17606     1 
17604 17607     1 
17604 17608     1 
17605 17612     1 
17605 17613     1 
17605 17614     1 
17606 17609     1 
17606 17610     1 
17606 17611     1 
17607 17609     1 
17607 17610     1 
17607 17611     1 
17608 17615     1 
17608 17616     1 
17608 17617     1 
17609 17612     1 
17609 17613     1 
17609 17614     1 
17610 17612     1 
17610 17613     1 
17610 17614     1 
17611 17618     1 
17611 17619     1 
17612 17615     1 
17612 17616     1 
17612 17617     1 
17613 17615     1 
17613 17616     1 
17613 17617     1 
17614 17620     1 
17614 17621     1 
17615 17618     1 
17615 17619     1 
17616 17618     1 
17616 17619     1 
17617 17622     1 
17617 17623     1 
17617 17624     1 
17618 17620     1 
17618 17621     1 
17619 17625     1 
17619 17626     1 
17619 17627     1 
17620 17622     1 
17620 17623     1 
17620 17624     1 
17621 17628     1 
17621 17629     1 
17621 17630     1 
17622 17625     1 
17622 17626     1 
17622 17627     1 
17623 17625     1 
17623 17626     1 
17623 17627     1 
17624 17631     1 
17624 17632     1 
17624 17633     1 
17625 17628     1 
17625 17629     1 
17625 17630     1 
17626 17628     1 
17626 17629     1 
17626 17630     1 
17627 17634     1 
17627 17635     1 
17627 17636     1 
17628 17631     1 
17628 17632     1 
17628 17633     1 
17629 17631     1 
17629 17632     1 
17629 17633     1 
17630 17637     1 
17630 17638     1 
17630 17639     1 
17631 17634     1 
17631 17635     1 
17631 17636     1 
17632 17634     1 
17632 17635     1 
17632 17636     1 
17633 17640     1 
17633 17641     1 
17633 17642     1 
17634 17637     1 
17634 17638     1 
17634 17639     1 
17635 17637     1 
17635 17638     1 
17635 17639     1 
17636 17643     1 
17636 17644     1 
17636 17645     1 
17637 17640     1 
17637 17641     1 
17637 17642     1 
17638 17640     1 
17638 17641     1 
17638 17642     1 
17640 17643     1 
17640 17644     1 
17640 17645     1 
17641 17643     1 
17641 17644     1 
17641 17645     1 
17646 17653     1 
17646 17654     1 
17646 17655     1 
17647 17650     1 
17647 17651     1 
17647 17652     1 
17648 17650     1 
17648 17651     1 
17648 17652     1 
17649 17656     1 
17649 17657     1 
17649 17658     1 
17650 17653     1 
17650 17654     1 
17650 17655     1 
17651 17653     1 
17651 17654     1 
17651 17655     1 
17652 17659     1 
17652 17660     1 
17652 17661     1 
17653 17656     1 
17653 17657     1 
17653 17658     1 
17654 17656     1 
17654 17657     1 
17654 17658     1 
17655 17662     1 
17655 17663     1 
17655 17664     1 
17656 17659     1 
17656 17660     1 
17656 17661     1 
17657 17659     1 
17657 17660     1 
17657 17661     1 
17658 17665     1 
17658 17666     1 
17658 17667     1 
17659 17662     1 
17659 17663     1 
17659 17664     1 
17660 17662     1 
17660 17663     1 
17660 17664     1 
17661 17668     1 
17661 17669     1 
17661 17670     1 
17662 17665     1 
17662 17666     1 
17662 17667     1 
17663 17665     1 
17663 17666     1 
17663 17667     1 
17664 17671     1 
17664 17672     1 
17664 17673     1 
17665 17668     1 
17665 17669     1 
17665 17670     1 
17666 17668     1 
17666 17669     1 
17666 17670     1 
17667 17674     1 
17667 17675     1 
17667 17676     1 
17668 17671     1 
17668 17672     1 
17668 17673     1 
17669 17671     1 
17669 17672     1 
17669 17673     1 
17670 17677     1 
17670 17678     1 
17670 17679     1 
17671 17674     1 
17671 17675     1 
17671 17676     1 
17672 17674     1 
17672 17675     1 
17672 17676     1 
17673 17680     1 
17673 17681     1 
17673 17682     1 
17674 17677     1 
17674 17678     1 
17674 17679     1 
17675 17677     1 
17675 17678     1 
17675 17679     1 
17676 17683     1 
17676 17684     1 
17676 17685     1 
17677 17680     1 
17677 17681     1 
17677 17682     1 
17678 17680     1 
17678 17681     1 
17678 17682     1 
17679 17686     1 
17679 17687     1 
17679 17688     1 
17680 17683     1 
17680 17684     1 
17680 17685     1 
17681 17683     1 
17681 17684     1 
17681 17685     1 
17683 17686     1 
17683 17687     1 
17683 17688     1 
17684 17686     1 
17684 17687     1 
17684 17688     1 
17689 17706     1 
17689 17707     1 
17689 17711     1 
17690 17694     1 
17690 17695     1 
17690 17696     1 
17690 17698     1 
17690 17699     1 
17690 17700     1 
17690 17702     1 
17690 17703     1 
17690 17704     1 
17690 17708     1 
17691 17693     1 
17691 17697     1 
17691 17701     1 
17691 17706     1 
17691 17707     1 
17691 17711     1 
17692 17693     1 
17692 17697     1 
17692 17701     1 
17692 17706     1 
17692 17707     1 
17692 17711     1 
17693 17698     1 
17693 17699     1 
17693 17700     1 
17693 17702     1 
17693 17703     1 
17693 17704     1 
17693 17705     1 
17694 17697     1 
17694 17701     1 
17695 17697     1 
17695 17701     1 
17696 17697     1 
17696 17701     1 
17697 17702     1 
17697 17703     1 
17697 17704     1 
17697 17705     1 
17698 17701     1 
17699 17701     1 
17700 17701     1 
17701 17705     1 
17705 17709     1 
17705 17710     1 
17705 17712     1 
17706 17708     1 
17707 17708     1 
17708 17714     1 
17708 17715     1 
17708 17716     1 
17709 17713     1 
17710 17713     1 
17711 17713     1 
17712 17717     1 
17712 17718     1 
17712 17724     1 
17713 17719     1 
17713 17725     1 
17713 17726     1 
17713 17727     1 
17714 17717     1 
17714 17718     1 
17714 17724     1 
17715 17717     1 
17715 17718     1 
17715 17724     1 
17716 17720     1 
17716 17721     1 
17716 17728     1 
17717 17719     1 
17717 17725     1 
17717 17726     1 
17717 17727     1 
17718 17722     1 
17718 17723     1 
17718 17725     1 
17718 17726     1 
17718 17727     1 
17718 17733     1 
17719 17724     1 
17719 17734     1 
17719 17735     1 
17719 17736     1 
17720 17722     1 
17720 17723     1 
17720 17733     1 
17721 17737     1 
17721 17738     1 
17721 17739     1 
17722 17734     1 
17722 17735     1 
17722 17736     1 
17723 17734     1 
17723 17735     1 
17723 17736     1 
17724 17729     1 
17724 17730     1 
17725 17728     1 
17726 17728     1 
17727 17731     1 
17727 17732     1 
17727 17780     1 
17728 17781     1 
17728 17782     1 
17728 17783     1 
17729 17731     1 
17729 17732     1 
17729 17780     1 
17730 17784     1 
17730 17785     1 
17730 17786     1 
17731 17781     1 
17731 17782     1 
17731 17783     1 
17732 17781     1 
17732 17782     1 
17732 17783     1 
17733 17740     1 
17733 17741     1 
17733 17742     1 
17734 17737     1 
17734 17738     1 
17734 17739     1 
17735 17737     1 
17735 17738     1 
17735 17739     1 
17736 17743     1 
17736 17744     1 
17736 17745     1 
17737 17740     1 
17737 17741     1 
17737 17742     1 
17738 17740     1 
17738 17741     1 
17738 17742     1 
17739 17746     1 
17739 17747     1 
17739 17748     1 
17740 17743     1 
17740 17744     1 
17740 17745     1 
17741 17743     1 
17741 17744     1 
17741 17745     1 
17742 17749     1 
17742 17750     1 
17742 17751     1 
17743 17746     1 
17743 17747     1 
17743 17748     1 
17744 17746     1 
17744 17747     1 
17744 17748     1 
17745 17752     1 
17745 17753     1 
17746 17749     1 
17746 17750     1 
17746 17751     1 
17747 17749     1 
17747 17750     1 
17747 17751     1 
17748 17754     1 
17748 17755     1 
17749 17752     1 
17749 17753     1 
17750 17752     1 
17750 17753     1 
17751 17756     1 
17751 17757     1 
17751 17758     1 
17752 17754     1 
17752 17755     1 
17753 17759     1 
17753 17760     1 
17753 17761     1 
17754 17756     1 
17754 17757     1 
17754 17758     1 
17755 17762     1 
17755 17763     1 
17755 17764     1 
17756 17759     1 
17756 17760     1 
17756 17761     1 
17757 17759     1 
17757 17760     1 
17757 17761     1 
17758 17765     1 
17758 17766     1 
17758 17767     1 
17759 17762     1 
17759 17763     1 
17759 17764     1 
17760 17762     1 
17760 17763     1 
17760 17764     1 
17761 17768     1 
17761 17769     1 
17761 17770     1 
17762 17765     1 
17762 17766     1 
17762 17767     1 
17763 17765     1 
17763 17766     1 
17763 17767     1 
17764 17771     1 
17764 17772     1 
17764 17773     1 
17765 17768     1 
17765 17769     1 
17765 17770     1 
17766 17768     1 
17766 17769     1 
17766 17770     1 
17767 17774     1 
17767 17775     1 
17767 17776     1 
17768 17771     1 
17768 17772     1 
17768 17773     1 
17769 17771     1 
17769 17772     1 
17769 17773     1 
17770 17777     1 
17770 17778     1 
17770 17779     1 
17771 17774     1 
17771 17775     1 
17771 17776     1 
17772 17774     1 
17772 17775     1 
17772 17776     1 
17774 17777     1 
17774 17778     1 
17774 17779     1 
17775 17777     1 
17775 17778     1 
17775 17779     1 
17780 17787     1 
17780 17788     1 
17780 17789     1 
17781 17784     1 
17781 17785     1 
17781 17786     1 
17782 17784     1 
17782 17785     1 
17782 17786     1 
17783 17790     1 
17783 17791     1 
17783 17792     1 
17784 17787     1 
17784 17788     1 
17784 17789     1 
17785 17787     1 
17785 17788     1 
17785 17789     1 
17786 17793     1 
17786 17794     1 
17786 17795     1 
17787 17790     1 
17787 17791     1 
17787 17792     1 
17788 17790     1 
17788 17791     1 
17788 17792     1 
17789 17796     1 
17789 17797     1 
17789 17798     1 
17790 17793     1 
17790 17794     1 
17790 17795     1 
17791 17793     1 
17791 17794     1 
17791 17795     1 
17792 17799     1 
17792 17800     1 
17792 17801     1 
17793 17796     1 
17793 17797     1 
17793 17798     1 
17794 17796     1 
17794 17797     1 
17794 17798     1 
17795 17802     1 
17795 17803     1 
17795 17804     1 
17796 17799     1 
17796 17800     1 
17796 17801     1 
17797 17799     1 
17797 17800     1 
17797 17801     1 
17798 17805     1 
17798 17806     1 
17798 17807     1 
17799 17802     1 
17799 17803     1 
17799 17804     1 
17800 17802     1 
17800 17803     1 
17800 17804     1 
17801 17808     1 
17801 17809     1 
17801 17810     1 
17802 17805     1 
17802 17806     1 
17802 17807     1 
17803 17805     1 
17803 17806     1 
17803 17807     1 
17804 17811     1 
17804 17812     1 
17804 17813     1 
17805 17808     1 
17805 17809     1 
17805 17810     1 
17806 17808     1 
17806 17809     1 
17806 17810     1 
17807 17814     1 
17807 17815     1 
17807 17816     1 
17808 17811     1 
17808 17812     1 
17808 17813     1 
17809 17811     1 
17809 17812     1 
17809 17813     1 
17810 17817     1 
17810 17818     1 
17810 17819     1 
17811 17814     1 
17811 17815     1 
17811 17816     1 
17812 17814     1 
17812 17815     1 
17812 17816     1 
17813 17820     1 
17813 17821     1 
17813 17822     1 
17814 17817     1 
17814 17818     1 
17814 17819     1 
17815 17817     1 
17815 17818     1 
17815 17819     1 
17817 17820     1 
17817 17821     1 
17817 17822     1 
17818 17820     1 
17818 17821     1 
17818 17822     1 
17823 17840     1 
17823 17841     1 
17823 17845     1 
17824 17828     1 
17824 17829     1 
17824 17830     1 
17824 17832     1 
17824 17833     1 
17824 17834     1 
17824 17836     1 
17824 17837     1 
17824 17838     1 
17824 17842     1 
17825 17827     1 
17825 17831     1 
17825 17835     1 
17825 17840     1 
17825 17841     1 
17825 17845     1 
17826 17827     1 
17826 17831     1 
17826 17835     1 
17826 17840     1 
17826 17841     1 
17826 17845     1 
17827 17832     1 
17827 17833     1 
17827 17834     1 
17827 17836     1 
17827 17837     1 
17827 17838     1 
17827 17839     1 
17828 17831     1 
17828 17835     1 
17829 17831     1 
17829 17835     1 
17830 17831     1 
17830 17835     1 
17831 17836     1 
17831 17837     1 
17831 17838     1 
17831 17839     1 
17832 17835     1 
17833 17835     1 
17834 17835     1 
17835 17839     1 
17839 17843     1 
17839 17844     1 
17839 17846     1 
17840 17842     1 
17841 17842     1 
17842 17848     1 
17842 17849     1 
17842 17850     1 
17843 17847     1 
17844 17847     1 
17845 17847     1 
17846 17851     1 
17846 17852     1 
17846 17858     1 
17847 17853     1 
17847 17859     1 
17847 17860     1 
17847 17861     1 
17848 17851     1 
17848 17852     1 
17848 17858     1 
17849 17851     1 
17849 17852     1 
17849 17858     1 
17850 17854     1 
17850 17855     1 
17850 17862     1 
17851 17853     1 
17851 17859     1 
17851 17860     1 
17851 17861     1 
17852 17856     1 
17852 17857     1 
17852 17859     1 
17852 17860     1 
17852 17861     1 
17852 17867     1 
17853 17858     1 
17853 17868     1 
17853 17869     1 
17853 17870     1 
17854 17856     1 
17854 17857     1 
17854 17867     1 
17855 17871     1 
17855 17872     1 
17855 17873     1 
17856 17868     1 
17856 17869     1 
17856 17870     1 
17857 17868     1 
17857 17869     1 
17857 17870     1 
17858 17863     1 
17858 17864     1 
17859 17862     1 
17860 17862     1 
17861 17865     1 
17861 17866     1 
17861 17914     1 
17862 17915     1 
17862 17916     1 
17862 17917     1 
17863 17865     1 
17863 17866     1 
17863 17914     1 
17864 17918     1 
17864 17919     1 
17864 17920     1 
17865 17915     1 
17865 17916     1 
17865 17917     1 
17866 17915     1 
17866 17916     1 
17866 17917     1 
17867 17874     1 
17867 17875     1 
17867 17876     1 
17868 17871     1 
17868 17872     1 
17868 17873     1 
17869 17871     1 
17869 17872     1 
17869 17873     1 
17870 17877     1 
17870 17878     1 
17870 17879     1 
17871 17874     1 
17871 17875     1 
17871 17876     1 
17872 17874     1 
17872 17875     1 
17872 17876     1 
17873 17880     1 
17873 17881     1 
17873 17882     1 
17874 17877     1 
17874 17878     1 
17874 17879     1 
17875 17877     1 
17875 17878     1 
17875 17879     1 
17876 17883     1 
17876 17884     1 
17876 17885     1 
17877 17880     1 
17877 17881     1 
17877 17882     1 
17878 17880     1 
17878 17881     1 
17878 17882     1 
17879 17886     1 
17879 17887     1 
17880 17883     1 
17880 17884     1 
17880 17885     1 
17881 17883     1 
17881 17884     1 
17881 17885     1 
17882 17888     1 
17882 17889     1 
17883 17886     1 
17883 17887     1 
17884 17886     1 
17884 17887     1 
17885 17890     1 
17885 17891     1 
17885 17892     1 
17886 17888     1 
17886 17889     1 
17887 17893     1 
17887 17894     1 
17887 17895     1 
17888 17890     1 
17888 17891     1 
17888 17892     1 
17889 17896     1 
17889 17897     1 
17889 17898     1 
17890 17893     1 
17890 17894     1 
17890 17895     1 
17891 17893     1 
17891 17894     1 
17891 17895     1 
17892 17899     1 
17892 17900     1 
17892 17901     1 
17893 17896     1 
17893 17897     1 
17893 17898     1 
17894 17896     1 
17894 17897     1 
17894 17898     1 
17895 17902     1 
17895 17903     1 
17895 17904     1 
17896 17899     1 
17896 17900     1 
17896 17901     1 
17897 17899     1 
17897 17900     1 
17897 17901     1 
17898 17905     1 
17898 17906     1 
17898 17907     1 
17899 17902     1 
17899 17903     1 
17899 17904     1 
17900 17902     1 
17900 17903     1 
17900 17904     1 
17901 17908     1 
17901 17909     1 
17901 17910     1 
17902 17905     1 
17902 17906     1 
17902 17907     1 
17903 17905     1 
17903 17906     1 
17903 17907     1 
17904 17911     1 
17904 17912     1 
17904 17913     1 
17905 17908     1 
17905 17909     1 
17905 17910     1 
17906 17908     1 
17906 17909     1 
17906 17910     1 
17908 17911     1 
17908 17912     1 
17908 17913     1 
17909 17911     1 
17909 17912     1 
17909 17913     1 
17914 17921     1 
17914 17922     1 
17914 17923     1 
17915 17918     1 
17915 17919     1 
17915 17920     1 
17916 17918     1 
17916 17919     1 
17916 17920     1 
17917 17924     1 
17917 17925     1 
17917 17926     1 
17918 17921     1 
17918 17922     1 
17918 17923     1 
17919 17921     1 
17919 17922     1 
17919 17923     1 
17920 17927     1 
17920 17928     1 
17920 17929     1 
17921 17924     1 
17921 17925     1 
17921 17926     1 
17922 17924     1 
17922 17925     1 
17922 17926     1 
17923 17930     1 
17923 17931     1 
17923 17932     1 
17924 17927     1 
17924 17928     1 
17924 17929     1 
17925 17927     1 
17925 17928     1 
17925 17929     1 
17926 17933     1 
17926 17934     1 
17926 17935     1 
17927 17930     1 
17927 17931     1 
17927 17932     1 
17928 17930     1 
17928 17931     1 
17928 17932     1 
17929 17936     1 
17929 17937     1 
17929 17938     1 
17930 17933     1 
17930 17934     1 
17930 17935     1 
17931 17933     1 
17931 17934     1 
17931 17935     1 
17932 17939     1 
17932 17940     1 
17932 17941     1 
17933 17936     1 
17933 17937     1 
17933 17938     1 
17934 17936     1 
17934 17937     1 
17934 17938     1 
17935 17942     1 
17935 17943     1 
17935 17944     1 
17936 17939     1 
17936 17940     1 
17936 17941     1 
17937 17939     1 
17937 17940     1 
17937 17941     1 
17938 17945     1 
17938 17946     1 
17938 17947     1 
17939 17942     1 
17939 17943     1 
17939 17944     1 
17940 17942     1 
17940 17943     1 
17940 17944     1 
17941 17948     1 
17941 17949     1 
17941 17950     1 
17942 17945     1 
17942 17946     1 
17942 17947     1 
17943 17945     1 
17943 17946     1 
17943 17947     1 
17944 17951     1 
17944 17952     1 
17944 17953     1 
17945 17948     1 
17945 17949     1 
17945 17950     1 
17946 17948     1 
17946 17949     1 
17946 17950     1 
17947 17954     1 
17947 17955     1 
17947 17956     1 
17948 17951     1 
17948 17952     1 
17948 17953     1 
17949 17951     1 
17949 17952     1 
17949 17953     1 
17951 17954     1 
17951 17955     1 
17951 17956     1 
17952 17954     1 
17952 17955     1 
17952 17956     1 
17957 17974     1 
17957 17975     1 
17957 17979     1 
17958 17962     1 
17958 17963     1 
17958 17964     1 
17958 17966     1 
17958 17967     1 
17958 17968     1 
17958 17970     1 
17958 17971     1 
17958 17972     1 
17958 17976     1 
17959 17961     1 
17959 17965     1 
17959 17969     1 
17959 17974     1 
17959 17975     1 
17959 17979     1 
17960 17961     1 
17960 17965     1 
17960 17969     1 
17960 17974     1 
17960 17975     1 
17960 17979     1 
17961 17966     1 
17961 17967     1 
17961 17968     1 
17961 17970     1 
17961 17971     1 
17961 17972     1 
17961 17973     1 
17962 17965     1 
17962 17969     1 
17963 17965     1 
17963 17969     1 
17964 17965     1 
17964 17969     1 
17965 17970     1 
17965 17971     1 
17965 17972     1 
17965 17973     1 
17966 17969     1 
17967 17969     1 
17968 17969     1 
17969 17973     1 
17973 17977     1 
17973 17978     1 
17973 17980     1 
17974 17976     1 
17975 17976     1 
17976 17982     1 
17976 17983     1 
17976 17984     1 
17977 17981     1 
17978 17981     1 
17979 17981     1 
17980 17985     1 
17980 17986     1 
17980 17992     1 
17981 17987     1 
17981 17993     1 
17981 17994     1 
17981 17995     1 
17982 17985     1 
17982 17986     1 
17982 17992     1 
17983 17985     1 
17983 17986     1 
17983 17992     1 
17984 17988     1 
17984 17989     1 
17984 17996     1 
17985 17987     1 
17985 17993     1 
17985 17994     1 
17985 17995     1 
17986 17990     1 
17986 17991     1 
17986 17993     1 
17986 17994     1 
17986 17995     1 
17986 18001     1 
17987 17992     1 
17987 18002     1 
17987 18003     1 
17987 18004     1 
17988 17990     1 
17988 17991     1 
17988 18001     1 
17989 18005     1 
17989 18006     1 
17989 18007     1 
17990 18002     1 
17990 18003     1 
17990 18004     1 
17991 18002     1 
17991 18003     1 
17991 18004     1 
17992 17997     1 
17992 17998     1 
17993 17996     1 
17994 17996     1 
17995 17999     1 
17995 18000     1 
17995 18048     1 
17996 18049     1 
17996 18050     1 
17996 18051     1 
17997 17999     1 
17997 18000     1 
17997 18048     1 
17998 18052     1 
17998 18053     1 
17998 18054     1 
17999 18049     1 
17999 18050     1 
17999 18051     1 
18000 18049     1 
18000 18050     1 
18000 18051     1 
18001 18008     1 
18001 18009     1 
18001 18010     1 
18002 18005     1 
18002 18006     1 
18002 18007     1 
18003 18005     1 
18003 18006     1 
18003 18007     1 
18004 18011     1 
18004 18012     1 
18004 18013     1 
18005 18008     1 
18005 18009     1 
18005 18010     1 
18006 18008     1 
18006 18009     1 
18006 18010     1 
18007 18014     1 
18007 18015     1 
18007 18016     1 
18008 18011     1 
18008 18012     1 
18008 18013     1 
18009 18011     1 
18009 18012     1 
18009 18013     1 
18010 18017     1 
18010 18018     1 
18010 18019     1 
18011 18014     1 
18011 18015     1 
18011 18016     1 
18012 18014     1 
18012 18015     1 
18012 18016     1 
18013 18020     1 
18013 18021     1 
18014 18017     1 
18014 18018     1 
18014 18019     1 
18015 18017     1 
18015 18018     1 
18015 18019     1 
18016 18022     1 
18016 18023     1 
18017 18020     1 
18017 18021     1 
18018 18020     1 
18018 18021     1 
18019 18024     1 
18019 18025     1 
18019 18026     1 
18020 18022     1 
18020 18023     1 
18021 18027     1 
18021 18028     1 
18021 18029     1 
18022 18024     1 
18022 18025     1 
18022 18026     1 
18023 18030     1 
18023 18031     1 
18023 18032     1 
18024 18027     1 
18024 18028     1 
18024 18029     1 
18025 18027     1 
18025 18028     1 
18025 18029     1 
18026 18033     1 
18026 18034     1 
18026 18035     1 
18027 18030     1 
18027 18031     1 
18027 18032     1 
18028 18030     1 
18028 18031     1 
18028 18032     1 
18029 18036     1 
18029 18037     1 
18029 18038     1 
18030 18033     1 
18030 18034     1 
18030 18035     1 
18031 18033     1 
18031 18034     1 
18031 18035     1 
18032 18039     1 
18032 18040     1 
18032 18041     1 
18033 18036     1 
18033 18037     1 
18033 18038     1 
18034 18036     1 
18034 18037     1 
18034 18038     1 
18035 18042     1 
18035 18043     1 
18035 18044     1 
18036 18039     1 
18036 18040     1 
18036 18041     1 
18037 18039     1 
18037 18040     1 
18037 18041     1 
18038 18045     1 
18038 18046     1 
18038 18047     1 
18039 18042     1 
18039 18043     1 
18039 18044     1 
18040 18042     1 
18040 18043     1 
18040 18044     1 
18042 18045     1 
18042 18046     1 
18042 18047     1 
18043 18045     1 
18043 18046     1 
18043 18047     1 
18048 18055     1 
18048 18056     1 
18048 18057     1 
18049 18052     1 
18049 18053     1 
18049 18054     1 
18050 18052     1 
18050 18053     1 
18050 18054     1 
18051 18058     1 
18051 18059     1 
18051 18060     1 
18052 18055     1 
18052 18056     1 
18052 18057     1 
18053 18055     1 
18053 18056     1 
18053 18057     1 
18054 18061     1 
18054 18062     1 
18054 18063     1 
18055 18058     1 
18055 18059     1 
18055 18060     1 
18056 18058     1 
18056 18059     1 
18056 18060     1 
18057 18064     1 
18057 18065     1 
18057 18066     1 
18058 18061     1 
18058 18062     1 
18058 18063     1 
18059 18061     1 
18059 18062     1 
18059 18063     1 
18060 18067     1 
18060 18068     1 
18060 18069     1 
18061 18064     1 
18061 18065     1 
18061 18066     1 
18062 18064     1 
18062 18065     1 
18062 18066     1 
18063 18070     1 
18063 18071     1 
18063 18072     1 
18064 18067     1 
18064 18068     1 
18064 18069     1 
18065 18067     1 
18065 18068     1 
18065 18069     1 
18066 18073     1 
18066 18074     1 
18066 18075     1 
18067 18070     1 
18067 18071     1 
18067 18072     1 
18068 18070     1 
18068 18071     1 
18068 18072     1 
18069 18076     1 
18069 18077     1 
18069 18078     1 
18070 18073     1 
18070 18074     1 
18070 18075     1 
18071 18073     1 
18071 18074     1 
18071 18075     1 
18072 18079     1 
18072 18080     1 
18072 18081     1 
18073 18076     1 
18073 18077     1 
18073 18078     1 
18074 18076     1 
18074 18077     1 
18074 18078     1 
18075 18082     1 
18075 18083     1 
18075 18084     1 
18076 18079     1 
18076 18080     1 
18076 18081     1 
18077 18079     1 
18077 18080     1 
18077 18081     1 
18078 18085     1 
18078 18086     1 
18078 18087     1 
18079 18082     1 
18079 18083     1 
18079 18084     1 
18080 18082     1 
18080 18083     1 
18080 18084     1 
18081 18088     1 
18081 18089     1 
18081 18090     1 
18082 18085     1 
18082 18086     1 
18082 18087     1 
18083 18085     1 
18083 18086     1 
18083 18087     1 
18085 18088     1 
18085 18089     1 
18085 18090     1 
18086 18088     1 
18086 18089     1 
18086 18090     1 
18091 18108     1 
18091 18109     1 
18091 18113     1 
18092 18096     1 
18092 18097     1 
18092 18098     1 
18092 18100     1 
18092 18101     1 
18092 18102     1 
18092 18104     1 
18092 18105     1 
18092 18106     1 
18092 18110     1 
18093 18095     1 
18093 18099     1 
18093 18103     1 
18093 18108     1 
18093 18109     1 
18093 18113     1 
18094 18095     1 
18094 18099     1 
18094 18103     1 
18094 18108     1 
18094 18109     1 
18094 18113     1 
18095 18100     1 
18095 18101     1 
18095 18102     1 
18095 18104     1 
18095 18105     1 
18095 18106     1 
18095 18107     1 
18096 18099     1 
18096 18103     1 
18097 18099     1 
18097 18103     1 
18098 18099     1 
18098 18103     1 
18099 18104     1 
18099 18105     1 
18099 18106     1 
18099 18107     1 
18100 18103     1 
18101 18103     1 
18102 18103     1 
18103 18107     1 
18107 18111     1 
18107 18112     1 
18107 18114     1 
18108 18110     1 
18109 18110     1 
18110 18116     1 
18110 18117     1 
18110 18118     1 
18111 18115     1 
18112 18115     1 
18113 18115     1 
18114 18119     1 
18114 18120     1 
18114 18126     1 
18115 18121     1 
18115 18127     1 
18115 18128     1 
18115 18129     1 
18116 18119     1 
18116 18120     1 
18116 18126     1 
18117 18119     1 
18117 18120     1 
18117 18126     1 
18118 18122     1 
18118 18123     1 
18118 18130     1 
18119 18121     1 
18119 18127     1 
18119 18128     1 
18119 18129     1 
18120 18124     1 
18120 18125     1 
18120 18127     1 
18120 18128     1 
18120 18129     1 
18120 18135     1 
18121 18126     1 
18121 18136     1 
18121 18137     1 
18121 18138     1 
18122 18124     1 
18122 18125     1 
18122 18135     1 
18123 18139     1 
18123 18140     1 
18123 18141     1 
18124 18136     1 
18124 18137     1 
18124 18138     1 
18125 18136     1 
18125 18137     1 
18125 18138     1 
18126 18131     1 
18126 18132     1 
18127 18130     1 
18128 18130     1 
18129 18133     1 
18129 18134     1 
18129 18182     1 
18130 18183     1 
18130 18184     1 
18130 18185     1 
18131 18133     1 
18131 18134     1 
18131 18182     1 
18132 18186     1 
18132 18187     1 
18132 18188     1 
18133 18183     1 
18133 18184     1 
18133 18185     1 
18134 18183     1 
18134 18184     1 
18134 18185     1 
18135 18142     1 
18135 18143     1 
18135 18144     1 
18136 18139     1 
18136 18140     1 
18136 18141     1 
18137 18139     1 
18137 18140     1 
18137 18141     1 
18138 18145     1 
18138 18146     1 
18138 18147     1 
18139 18142     1 
18139 18143     1 
18139 18144     1 
18140 18142     1 
18140 18143     1 
18140 18144     1 
18141 18148     1 
18141 18149     1 
18141 18150     1 
18142 18145     1 
18142 18146     1 
18142 18147     1 
18143 18145     1 
18143 18146     1 
18143 18147     1 
18144 18151     1 
18144 18152     1 
18144 18153     1 
18145 18148     1 
18145 18149     1 
18145 18150     1 
18146 18148     1 
18146 18149     1 
18146 18150     1 
18147 18154     1 
18147 18155     1 
18148 18151     1 
18148 18152     1 
18148 18153     1 
18149 18151     1 
18149 18152     1 
18149 18153     1 
18150 18156     1 
18150 18157     1 
18151 18154     1 
18151 18155     1 
18152 18154     1 
18152 18155     1 
18153 18158     1 
18153 18159     1 
18153 18160     1 
18154 18156     1 
18154 18157     1 
18155 18161     1 
18155 18162     1 
18155 18163     1 
18156 18158     1 
18156 18159     1 
18156 18160     1 
18157 18164     1 
18157 18165     1 
18157 18166     1 
18158 18161     1 
18158 18162     1 
18158 18163     1 
18159 18161     1 
18159 18162     1 
18159 18163     1 
18160 18167     1 
18160 18168     1 
18160 18169     1 
18161 18164     1 
18161 18165     1 
18161 18166     1 
18162 18164     1 
18162 18165     1 
18162 18166     1 
18163 18170     1 
18163 18171     1 
18163 18172     1 
18164 18167     1 
18164 18168     1 
18164 18169     1 
18165 18167     1 
18165 18168     1 
18165 18169     1 
18166 18173     1 
18166 18174     1 
18166 18175     1 
18167 18170     1 
18167 18171     1 
18167 18172     1 
18168 18170     1 
18168 18171     1 
18168 18172     1 
18169 18176     1 
18169 18177     1 
18169 18178     1 
18170 18173     1 
18170 18174     1 
18170 18175     1 
18171 18173     1 
18171 18174     1 
18171 18175     1 
18172 18179     1 
18172 18180     1 
18172 18181     1 
18173 18176     1 
18173 18177     1 
18173 18178     1 
18174 18176     1 
18174 18177     1 
18174 18178     1 
18176 18179     1 
18176 18180     1 
18176 18181     1 
18177 18179     1 
18177 18180     1 
18177 18181     1 
18182 18189     1 
18182 18190     1 
18182 18191     1 
18183 18186     1 
18183 18187     1 
18183 18188     1 
18184 18186     1 
18184 18187     1 
18184 18188     1 
18185 18192     1 
18185 18193     1 
18185 18194     1 
18186 18189     1 
18186 18190     1 
18186 18191     1 
18187 18189     1 
18187 18190     1 
18187 18191     1 
18188 18195     1 
18188 18196     1 
18188 18197     1 
18189 18192     1 
18189 18193     1 
18189 18194     1 
18190 18192     1 
18190 18193     1 
18190 18194     1 
18191 18198     1 
18191 18199     1 
18191 18200     1 
18192 18195     1 
18192 18196     1 
18192 18197     1 
18193 18195     1 
18193 18196     1 
18193 18197     1 
18194 18201     1 
18194 18202     1 
18194 18203     1 
18195 18198     1 
18195 18199     1 
18195 18200     1 
18196 18198     1 
18196 18199     1 
18196 18200     1 
18197 18204     1 
18197 18205     1 
18197 18206     1 
18198 18201     1 
18198 18202     1 
18198 18203     1 
18199 18201     1 
18199 18202     1 
18199 18203     1 
18200 18207     1 
18200 18208     1 
18200 18209     1 
18201 18204     1 
18201 18205     1 
18201 18206     1 
18202 18204     1 
18202 18205     1 
18202 18206     1 
18203 18210     1 
18203 18211     1 
18203 18212     1 
18204 18207     1 
18204 18208     1 
18204 18209     1 
18205 18207     1 
18205 18208     1 
18205 18209     1 
18206 18213     1 
18206 18214     1 
18206 18215     1 
18207 18210     1 
18207 18211     1 
18207 18212     1 
18208 18210     1 
18208 18211     1 
18208 18212     1 
18209 18216     1 
18209 18217     1 
18209 18218     1 
18210 18213     1 
18210 18214     1 
18210 18215     1 
18211 18213     1 
18211 18214     1 
18211 18215     1 
18212 18219     1 
18212 18220     1 
18212 18221     1 
18213 18216     1 
18213 18217     1 
18213 18218     1 
18214 18216     1 
18214 18217     1 
18214 18218     1 
18215 18222     1 
18215 18223     1 
18215 18224     1 
18216 18219     1 
18216 18220     1 
18216 18221     1 
18217 18219     1 
18217 18220     1 
18217 18221     1 
18219 18222     1 
18219 18223     1 
18219 18224     1 
18220 18222     1 
18220 18223     1 
18220 18224     1 
18225 18242     1 
18225 18243     1 
18225 18247     1 
18226 18230     1 
18226 18231     1 
18226 18232     1 
18226 18234     1 
18226 18235     1 
18226 18236     1 
18226 18238     1 
18226 18239     1 
18226 18240     1 
18226 18244     1 
18227 18229     1 
18227 18233     1 
18227 18237     1 
18227 18242     1 
18227 18243     1 
18227 18247     1 
18228 18229     1 
18228 18233     1 
18228 18237     1 
18228 18242     1 
18228 18243     1 
18228 18247     1 
18229 18234     1 
18229 18235     1 
18229 18236     1 
18229 18238     1 
18229 18239     1 
18229 18240     1 
18229 18241     1 
18230 18233     1 
18230 18237     1 
18231 18233     1 
18231 18237     1 
18232 18233     1 
18232 18237     1 
18233 18238     1 
18233 18239     1 
18233 18240     1 
18233 18241     1 
18234 18237     1 
18235 18237     1 
18236 18237     1 
18237 18241     1 
18241 18245     1 
18241 18246     1 
18241 18248     1 
18242 18244     1 
18243 18244     1 
18244 18250     1 
18244 18251     1 
18244 18252     1 
18245 18249     1 
18246 18249     1 
18247 18249     1 
18248 18253     1 
18248 18254     1 
18248 18260     1 
18249 18255     1 
18249 18261     1 
18249 18262     1 
18249 18263     1 
18250 18253     1 
18250 18254     1 
18250 18260     1 
18251 18253     1 
18251 18254     1 
18251 18260     1 
18252 18256     1 
18252 18257     1 
18252 18264     1 
18253 18255     1 
18253 18261     1 
18253 18262     1 
18253 18263     1 
18254 18258     1 
18254 18259     1 
18254 18261     1 
18254 18262     1 
18254 18263     1 
18254 18269     1 
18255 18260     1 
18255 18270     1 
18255 18271     1 
18255 18272     1 
18256 18258     1 
18256 18259     1 
18256 18269     1 
18257 18273     1 
18257 18274     1 
18257 18275     1 
18258 18270     1 
18258 18271     1 
18258 18272     1 
18259 18270     1 
18259 18271     1 
18259 18272     1 
18260 18265     1 
18260 18266     1 
18261 18264     1 
18262 18264     1 
18263 18267     1 
18263 18268     1 
18263 18316     1 
18264 18317     1 
18264 18318     1 
18264 18319     1 
18265 18267     1 
18265 18268     1 
18265 18316     1 
18266 18320     1 
18266 18321     1 
18266 18322     1 
18267 18317     1 
18267 18318     1 
18267 18319     1 
18268 18317     1 
18268 18318     1 
18268 18319     1 
18269 18276     1 
18269 18277     1 
18269 18278     1 
18270 18273     1 
18270 18274     1 
18270 18275     1 
18271 18273     1 
18271 18274     1 
18271 18275     1 
18272 18279     1 
18272 18280     1 
18272 18281     1 
18273 18276     1 
18273 18277     1 
18273 18278     1 
18274 18276     1 
18274 18277     1 
18274 18278     1 
18275 18282     1 
18275 18283     1 
18275 18284     1 
18276 18279     1 
18276 18280     1 
18276 18281     1 
18277 18279     1 
18277 18280     1 
18277 18281     1 
18278 18285     1 
18278 18286     1 
18278 18287     1 
18279 18282     1 
18279 18283     1 
18279 18284     1 
18280 18282     1 
18280 18283     1 
18280 18284     1 
18281 18288     1 
18281 18289     1 
18282 18285     1 
18282 18286     1 
18282 18287     1 
18283 18285     1 
18283 18286     1 
18283 18287     1 
18284 18290     1 
18284 18291     1 
18285 18288     1 
18285 18289     1 
18286 18288     1 
18286 18289     1 
18287 18292     1 
18287 18293     1 
18287 18294     1 
18288 18290     1 
18288 18291     1 
18289 18295     1 
18289 18296     1 
18289 18297     1 
18290 18292     1 
18290 18293     1 
18290 18294     1 
18291 18298     1 
18291 18299     1 
18291 18300     1 
18292 18295     1 
18292 18296     1 
18292 18297     1 
18293 18295     1 
18293 18296     1 
18293 18297     1 
18294 18301     1 
18294 18302     1 
18294 18303     1 
18295 18298     1 
18295 18299     1 
18295 18300     1 
18296 18298     1 
18296 18299     1 
18296 18300     1 
18297 18304     1 
18297 18305     1 
18297 18306     1 
18298 18301     1 
18298 18302     1 
18298 18303     1 
18299 18301     1 
18299 18302     1 
18299 18303     1 
18300 18307     1 
18300 18308     1 
18300 18309     1 
18301 18304     1 
18301 18305     1 
18301 18306     1 
18302 18304     1 
18302 18305     1 
18302 18306     1 
18303 18310     1 
18303 18311     1 
18303 18312     1 
18304 18307     1 
18304 18308     1 
18304 18309     1 
18305 18307     1 
18305 18308     1 
18305 18309     1 
18306 18313     1 
18306 18314     1 
18306 18315     1 
18307 18310     1 
18307 18311     1 
18307 18312     1 
18308 18310     1 
18308 18311     1 
18308 18312     1 
18310 18313     1 
18310 18314     1 
18310 18315     1 
18311 18313     1 
18311 18314     1 
18311 18315     1 
18316 18323     1 
18316 18324     1 
18316 18325     1 
18317 18320     1 
18317 18321     1 
18317 18322     1 
18318 18320     1 
18318 18321     1 
18318 18322     1 
18319 18326     1 
18319 18327     1 
18319 18328     1 
18320 18323     1 
18320 18324     1 
18320 18325     1 
18321 18323     1 
18321 18324     1 
18321 18325     1 
18322 18329     1 
18322 18330     1 
18322 18331     1 
18323 18326     1 
18323 18327     1 
18323 18328     1 
18324 18326     1 
18324 18327     1 
18324 18328     1 
18325 18332     1 
18325 18333     1 
18325 18334     1 
18326 18329     1 
18326 18330     1 
18326 18331     1 
18327 18329     1 
18327 18330     1 
18327 18331     1 
18328 18335     1 
18328 18336     1 
18328 18337     1 
18329 18332     1 
18329 18333     1 
18329 18334     1 
18330 18332     1 
18330 18333     1 
18330 18334     1 
18331 18338     1 
18331 18339     1 
18331 18340     1 
18332 18335     1 
18332 18336     1 
18332 18337     1 
18333 18335     1 
18333 18336     1 
18333 18337     1 
18334 18341     1 
18334 18342     1 
18334 18343     1 
18335 18338     1 
18335 18339     1 
18335 18340     1 
18336 18338     1 
18336 18339     1 
18336 18340     1 
18337 18344     1 
18337 18345     1 
18337 18346     1 
18338 18341     1 
18338 18342     1 
18338 18343     1 
18339 18341     1 
18339 18342     1 
18339 18343     1 
18340 18347     1 
18340 18348     1 
18340 18349     1 
18341 18344     1 
18341 18345     1 
18341 18346     1 
18342 18344     1 
18342 18345     1 
18342 18346     1 
18343 18350     1 
18343 18351     1 
18343 18352     1 
18344 18347     1 
18344 18348     1 
18344 18349     1 
18345 18347     1 
18345 18348     1 
18345 18349     1 
18346 18353     1 
18346 18354     1 
18346 18355     1 
18347 18350     1 
18347 18351     1 
18347 18352     1 
18348 18350     1 
18348 18351     1 
18348 18352     1 
18349 18356     1 
18349 18357     1 
18349 18358     1 
18350 18353     1 
18350 18354     1 
18350 18355     1 
18351 18353     1 
18351 18354     1 
18351 18355     1 
18353 18356     1 
18353 18357     1 
18353 18358     1 
18354 18356     1 
18354 18357     1 
18354 18358     1 
18359 18376     1 
18359 18377     1 
18359 18381     1 
18360 18364     1 
18360 18365     1 
18360 18366     1 
18360 18368     1 
18360 18369     1 
18360 18370     1 
18360 18372     1 
18360 18373     1 
18360 18374     1 
18360 18378     1 
18361 18363     1 
18361 18367     1 
18361 18371     1 
18361 18376     1 
18361 18377     1 
18361 18381     1 
18362 18363     1 
18362 18367     1 
18362 18371     1 
18362 18376     1 
18362 18377     1 
18362 18381     1 
18363 18368     1 
18363 18369     1 
18363 18370     1 
18363 18372     1 
18363 18373     1 
18363 18374     1 
18363 18375     1 
18364 18367     1 
18364 18371     1 
18365 18367     1 
18365 18371     1 
18366 18367     1 
18366 18371     1 
18367 18372     1 
18367 18373     1 
18367 18374     1 
18367 18375     1 
18368 18371     1 
18369 18371     1 
18370 18371     1 
18371 18375     1 
18375 18379     1 
18375 18380     1 
18375 18382     1 
18376 18378     1 
18377 18378     1 
18378 18384     1 
18378 18385     1 
18378 18386     1 
18379 18383     1 
18380 18383     1 
18381 18383     1 
18382 18387     1 
18382 18388     1 
18382 18394     1 
18383 18389     1 
18383 18395     1 
18383 18396     1 
18383 18397     1 
18384 18387     1 
18384 18388     1 
18384 18394     1 
18385 18387     1 
18385 18388     1 
18385 18394     1 
18386 18390     1 
18386 18391     1 
18386 18398     1 
18387 18389     1 
18387 18395     1 
18387 18396     1 
18387 18397     1 
18388 18392     1 
18388 18393     1 
18388 18395     1 
18388 18396     1 
18388 18397     1 
18388 18403     1 
18389 18394     1 
18389 18404     1 
18389 18405     1 
18389 18406     1 
18390 18392     1 
18390 18393     1 
18390 18403     1 
18391 18407     1 
18391 18408     1 
18391 18409     1 
18392 18404     1 
18392 18405     1 
18392 18406     1 
18393 18404     1 
18393 18405     1 
18393 18406     1 
18394 18399     1 
18394 18400     1 
18395 18398     1 
18396 18398     1 
18397 18401     1 
18397 18402     1 
18397 18450     1 
18398 18451     1 
18398 18452     1 
18398 18453     1 
18399 18401     1 
18399 18402     1 
18399 18450     1 
18400 18454     1 
18400 18455     1 
18400 18456     1 
18401 18451     1 
18401 18452     1 
18401 18453     1 
18402 18451     1 
18402 18452     1 
18402 18453     1 
18403 18410     1 
18403 18411     1 
18403 18412     1 
18404 18407     1 
18404 18408     1 
18404 18409     1 
18405 18407     1 
18405 18408     1 
18405 18409     1 
18406 18413     1 
18406 18414     1 
18406 18415     1 
18407 18410     1 
18407 18411     1 
18407 18412     1 
18408 18410     1 
18408 18411     1 
18408 18412     1 
18409 18416     1 
18409 18417     1 
18409 18418     1 
18410 18413     1 
18410 18414     1 
18410 18415     1 
18411 18413     1 
18411 18414     1 
18411 18415     1 
18412 18419     1 
18412 18420     1 
18412 18421     1 
18413 18416     1 
18413 18417     1 
18413 18418     1 
18414 18416     1 
18414 18417     1 
18414 18418     1 
18415 18422     1 
18415 18423     1 
18416 18419     1 
18416 18420     1 
18416 18421     1 
18417 18419     1 
18417 18420     1 
18417 18421     1 
18418 18424     1 
18418 18425     1 
18419 18422     1 
18419 18423     1 
18420 18422     1 
18420 18423     1 
18421 18426     1 
18421 18427     1 
18421 18428     1 
18422 18424     1 
18422 18425     1 
18423 18429     1 
18423 18430     1 
18423 18431     1 
18424 18426     1 
18424 18427     1 
18424 18428     1 
18425 18432     1 
18425 18433     1 
18425 18434     1 
18426 18429     1 
18426 18430     1 
18426 18431     1 
18427 18429     1 
18427 18430     1 
18427 18431     1 
18428 18435     1 
18428 18436     1 
18428 18437     1 
18429 18432     1 
18429 18433     1 
18429 18434     1 
18430 18432     1 
18430 18433     1 
18430 18434     1 
18431 18438     1 
18431 18439     1 
18431 18440     1 
18432 18435     1 
18432 18436     1 
18432 18437     1 
18433 18435     1 
18433 18436     1 
18433 18437     1 
18434 18441     1 
18434 18442     1 
18434 18443     1 
18435 18438     1 
18435 18439     1 
18435 18440     1 
18436 18438     1 
18436 18439     1 
18436 18440     1 
18437 18444     1 
18437 18445     1 
18437 18446     1 
18438 18441     1 
18438 18442     1 
18438 18443     1 
18439 18441     1 
18439 18442     1 
18439 18443     1 
18440 18447     1 
18440 18448     1 
18440 18449     1 
18441 18444     1 
18441 18445     1 
18441 18446     1 
18442 18444     1 
18442 18445     1 
18442 18446     1 
18444 18447     1 
18444 18448     1 
18444 18449     1 
18445 18447     1 
18445 18448     1 
18445 18449     1 
18450 18457     1 
18450 18458     1 
18450 18459     1 
18451 18454     1 
18451 18455     1 
18451 18456     1 
18452 18454     1 
18452 18455     1 
18452 18456     1 
18453 18460     1 
18453 18461     1 
18453 18462     1 
18454 18457     1 
18454 18458     1 
18454 18459     1 
18455 18457     1 
18455 18458     1 
18455 18459     1 
18456 18463     1 
18456 18464     1 
18456 18465     1 
18457 18460     1 
18457 18461     1 
18457 18462     1 
18458 18460     1 
18458 18461     1 
18458 18462     1 
18459 18466     1 
18459 18467     1 
18459 18468     1 
18460 18463     1 
18460 18464     1 
18460 18465     1 
18461 18463     1 
18461 18464     1 
18461 18465     1 
18462 18469     1 
18462 18470     1 
18462 18471     1 
18463 18466     1 
18463 18467     1 
18463 18468     1 
18464 18466     1 
18464 18467     1 
18464 18468     1 
18465 18472     1 
18465 18473     1 
18465 18474     1 
18466 18469     1 
18466 18470     1 
18466 18471     1 
18467 18469     1 
18467 18470     1 
18467 18471     1 
18468 18475     1 
18468 18476     1 
18468 18477     1 
18469 18472     1 
18469 18473     1 
18469 18474     1 
18470 18472     1 
18470 18473     1 
18470 18474     1 
18471 18478     1 
18471 18479     1 
18471 18480     1 
18472 18475     1 
18472 18476     1 
18472 18477     1 
18473 18475     1 
18473 18476     1 
18473 18477     1 
18474 18481     1 
18474 18482     1 
18474 18483     1 
18475 18478     1 
18475 18479     1 
18475 18480     1 
18476 18478     1 
18476 18479     1 
18476 18480     1 
18477 18484     1 
18477 18485     1 
18477 18486     1 
18478 18481     1 
18478 18482     1 
18478 18483     1 
18479 18481     1 
18479 18482     1 
18479 18483     1 
18480 18487     1 
18480 18488     1 
18480 18489     1 
18481 18484     1 
18481 18485     1 
18481 18486     1 
18482 18484     1 
18482 18485     1 
18482 18486     1 
18483 18490     1 
18483 18491     1 
18483 18492     1 
18484 18487     1 
18484 18488     1 
18484 18489     1 
18485 18487     1 
18485 18488     1 
18485 18489     1 
18487 18490     1 
18487 18491     1 
18487 18492     1 
18488 18490     1 
18488 18491     1 
18488 18492     1 
18493 18510     1 
18493 18511     1 
18493 18515     1 
18494 18498     1 
18494 18499     1 
18494 18500     1 
18494 18502     1 
18494 18503     1 
18494 18504     1 
18494 18506     1 
18494 18507     1 
18494 18508     1 
18494 18512     1 
18495 18497     1 
18495 18501     1 
18495 18505     1 
18495 18510     1 
18495 18511     1 
18495 18515     1 
18496 18497     1 
18496 18501     1 
18496 18505     1 
18496 18510     1 
18496 18511     1 
18496 18515     1 
18497 18502     1 
18497 18503     1 
18497 18504     1 
18497 18506     1 
18497 18507     1 
18497 18508     1 
18497 18509     1 
18498 18501     1 
18498 18505     1 
18499 18501     1 
18499 18505     1 
18500 18501     1 
18500 18505     1 
18501 18506     1 
18501 18507     1 
18501 18508     1 
18501 18509     1 
18502 18505     1 
18503 18505     1 
18504 18505     1 
18505 18509     1 
18509 18513     1 
18509 18514     1 
18509 18516     1 
18510 18512     1 
18511 18512     1 
18512 18518     1 
18512 18519     1 
18512 18520     1 
18513 18517     1 
18514 18517     1 
18515 18517     1 
18516 18521     1 
18516 18522     1 
18516 18528     1 
18517 18523     1 
18517 18529     1 
18517 18530     1 
18517 18531     1 
18518 18521     1 
18518 18522     1 
18518 18528     1 
18519 18521     1 
18519 18522     1 
18519 18528     1 
18520 18524     1 
18520 18525     1 
18520 18532     1 
18521 18523     1 
18521 18529     1 
18521 18530     1 
18521 18531     1 
18522 18526     1 
18522 18527     1 
18522 18529     1 
18522 18530     1 
18522 18531     1 
18522 18537     1 
18523 18528     1 
18523 18538     1 
18523 18539     1 
18523 18540     1 
18524 18526     1 
18524 18527     1 
18524 18537     1 
18525 18541     1 
18525 18542     1 
18525 18543     1 
18526 18538     1 
18526 18539     1 
18526 18540     1 
18527 18538     1 
18527 18539     1 
18527 18540     1 
18528 18533     1 
18528 18534     1 
18529 18532     1 
18530 18532     1 
18531 18535     1 
18531 18536     1 
18531 18584     1 
18532 18585     1 
18532 18586     1 
18532 18587     1 
18533 18535     1 
18533 18536     1 
18533 18584     1 
18534 18588     1 
18534 18589     1 
18534 18590     1 
18535 18585     1 
18535 18586     1 
18535 18587     1 
18536 18585     1 
18536 18586     1 
18536 18587     1 
18537 18544     1 
18537 18545     1 
18537 18546     1 
18538 18541     1 
18538 18542     1 
18538 18543     1 
18539 18541     1 
18539 18542     1 
18539 18543     1 
18540 18547     1 
18540 18548     1 
18540 18549     1 
18541 18544     1 
18541 18545     1 
18541 18546     1 
18542 18544     1 
18542 18545     1 
18542 18546     1 
18543 18550     1 
18543 18551     1 
18543 18552     1 
18544 18547     1 
18544 18548     1 
18544 18549     1 
18545 18547     1 
18545 18548     1 
18545 18549     1 
18546 18553     1 
18546 18554     1 
18546 18555     1 
18547 18550     1 
18547 18551     1 
18547 18552     1 
18548 18550     1 
18548 18551     1 
18548 18552     1 
18549 18556     1 
18549 18557     1 
18550 18553     1 
18550 18554     1 
18550 18555     1 
18551 18553     1 
18551 18554     1 
18551 18555     1 
18552 18558     1 
18552 18559     1 
18553 18556     1 
18553 18557     1 
18554 18556     1 
18554 18557     1 
18555 18560     1 
18555 18561     1 
18555 18562     1 
18556 18558     1 
18556 18559     1 
18557 18563     1 
18557 18564     1 
18557 18565     1 
18558 18560     1 
18558 18561     1 
18558 18562     1 
18559 18566     1 
18559 18567     1 
18559 18568     1 
18560 18563     1 
18560 18564     1 
18560 18565     1 
18561 18563     1 
18561 18564     1 
18561 18565     1 
18562 18569     1 
18562 18570     1 
18562 18571     1 
18563 18566     1 
18563 18567     1 
18563 18568     1 
18564 18566     1 
18564 18567     1 
18564 18568     1 
18565 18572     1 
18565 18573     1 
18565 18574     1 
18566 18569     1 
18566 18570     1 
18566 18571     1 
18567 18569     1 
18567 18570     1 
18567 18571     1 
18568 18575     1 
18568 18576     1 
18568 18577     1 
18569 18572     1 
18569 18573     1 
18569 18574     1 
18570 18572     1 
18570 18573     1 
18570 18574     1 
18571 18578     1 
18571 18579     1 
18571 18580     1 
18572 18575     1 
18572 18576     1 
18572 18577     1 
18573 18575     1 
18573 18576     1 
18573 18577     1 
18574 18581     1 
18574 18582     1 
18574 18583     1 
18575 18578     1 
18575 18579     1 
18575 18580     1 
18576 18578     1 
18576 18579     1 
18576 18580     1 
18578 18581     1 
18578 18582     1 
18578 18583     1 
18579 18581     1 
18579 18582     1 
18579 18583     1 
18584 18591     1 
18584 18592     1 
18584 18593     1 
18585 18588     1 
18585 18589     1 
18585 18590     1 
18586 18588     1 
18586 18589     1 
18586 18590     1 
18587 18594     1 
18587 18595     1 
18587 18596     1 
18588 18591     1 
18588 18592     1 
18588 18593     1 
18589 18591     1 
18589 18592     1 
18589 18593     1 
18590 18597     1 
18590 18598     1 
18590 18599     1 
18591 18594     1 
18591 18595     1 
18591 18596     1 
18592 18594     1 
18592 18595     1 
18592 18596     1 
18593 18600     1 
18593 18601     1 
18593 18602     1 
18594 18597     1 
18594 18598     1 
18594 18599     1 
18595 18597     1 
18595 18598     1 
18595 18599     1 
18596 18603     1 
18596 18604     1 
18596 18605     1 
18597 18600     1 
18597 18601     1 
18597 18602     1 
18598 18600     1 
18598 18601     1 
18598 18602     1 
18599 18606     1 
18599 18607     1 
18599 18608     1 
18600 18603     1 
18600 18604     1 
18600 18605     1 
18601 18603     1 
18601 18604     1 
18601 18605     1 
18602 18609     1 
18602 18610     1 
18602 18611     1 
18603 18606     1 
18603 18607     1 
18603 18608     1 
18604 18606     1 
18604 18607     1 
18604 18608     1 
18605 18612     1 
18605 18613     1 
18605 18614     1 
18606 18609     1 
18606 18610     1 
18606 18611     1 
18607 18609     1 
18607 18610     1 
18607 18611     1 
18608 18615     1 
18608 18616     1 
18608 18617     1 
18609 18612     1 
18609 18613     1 
18609 18614     1 
18610 18612     1 
18610 18613     1 
18610 18614     1 
18611 18618     1 
18611 18619     1 
18611 18620     1 
18612 18615     1 
18612 18616     1 
18612 18617     1 
18613 18615     1 
18613 18616     1 
18613 18617     1 
18614 18621     1 
18614 18622     1 
18614 18623     1 
18615 18618     1 
18615 18619     1 
18615 18620     1 
18616 18618     1 
18616 18619     1 
18616 18620     1 
18617 18624     1 
18617 18625     1 
18617 18626     1 
18618 18621     1 
18618 18622     1 
18618 18623     1 
18619 18621     1 
18619 18622     1 
18619 18623     1 
18621 18624     1 
18621 18625     1 
18621 18626     1 
18622 18624     1 
18622 18625     1 
18622 18626     1 
18627 18644     1 
18627 18645     1 
18627 18649     1 
18628 18632     1 
18628 18633     1 
18628 18634     1 
18628 18636     1 
18628 18637     1 
18628 18638     1 
18628 18640     1 
18628 18641     1 
18628 18642     1 
18628 18646     1 
18629 18631     1 
18629 18635     1 
18629 18639     1 
18629 18644     1 
18629 18645     1 
18629 18649     1 
18630 18631     1 
18630 18635     1 
18630 18639     1 
18630 18644     1 
18630 18645     1 
18630 18649     1 
18631 18636     1 
18631 18637     1 
18631 18638     1 
18631 18640     1 
18631 18641     1 
18631 18642     1 
18631 18643     1 
18632 18635     1 
18632 18639     1 
18633 18635     1 
18633 18639     1 
18634 18635     1 
18634 18639     1 
18635 18640     1 
18635 18641     1 
18635 18642     1 
18635 18643     1 
18636 18639     1 
18637 18639     1 
18638 18639     1 
18639 18643     1 
18643 18647     1 
18643 18648     1 
18643 18650     1 
18644 18646     1 
18645 18646     1 
18646 18652     1 
18646 18653     1 
18646 18654     1 
18647 18651     1 
18648 18651     1 
18649 18651     1 
18650 18655     1 
18650 18656     1 
18650 18662     1 
18651 18657     1 
18651 18663     1 
18651 18664     1 
18651 18665     1 
18652 18655     1 
18652 18656     1 
18652 18662     1 
18653 18655     1 
18653 18656     1 
18653 18662     1 
18654 18658     1 
18654 18659     1 
18654 18666     1 
18655 18657     1 
18655 18663     1 
18655 18664     1 
18655 18665     1 
18656 18660     1 
18656 18661     1 
18656 18663     1 
18656 18664     1 
18656 18665     1 
18656 18671     1 
18657 18662     1 
18657 18672     1 
18657 18673     1 
18657 18674     1 
18658 18660     1 
18658 18661     1 
18658 18671     1 
18659 18675     1 
18659 18676     1 
18659 18677     1 
18660 18672     1 
18660 18673     1 
18660 18674     1 
18661 18672     1 
18661 18673     1 
18661 18674     1 
18662 18667     1 
18662 18668     1 
18663 18666     1 
18664 18666     1 
18665 18669     1 
18665 18670     1 
18665 18718     1 
18666 18719     1 
18666 18720     1 
18666 18721     1 
18667 18669     1 
18667 18670     1 
18667 18718     1 
18668 18722     1 
18668 18723     1 
18668 18724     1 
18669 18719     1 
18669 18720     1 
18669 18721     1 
18670 18719     1 
18670 18720     1 
18670 18721     1 
18671 18678     1 
18671 18679     1 
18671 18680     1 
18672 18675     1 
18672 18676     1 
18672 18677     1 
18673 18675     1 
18673 18676     1 
18673 18677     1 
18674 18681     1 
18674 18682     1 
18674 18683     1 
18675 18678     1 
18675 18679     1 
18675 18680     1 
18676 18678     1 
18676 18679     1 
18676 18680     1 
18677 18684     1 
18677 18685     1 
18677 18686     1 
18678 18681     1 
18678 18682     1 
18678 18683     1 
18679 18681     1 
18679 18682     1 
18679 18683     1 
18680 18687     1 
18680 18688     1 
18680 18689     1 
18681 18684     1 
18681 18685     1 
18681 18686     1 
18682 18684     1 
18682 18685     1 
18682 18686     1 
18683 18690     1 
18683 18691     1 
18684 18687     1 
18684 18688     1 
18684 18689     1 
18685 18687     1 
18685 18688     1 
18685 18689     1 
18686 18692     1 
18686 18693     1 
18687 18690     1 
18687 18691     1 
18688 18690     1 
18688 18691     1 
18689 18694     1 
18689 18695     1 
18689 18696     1 
18690 18692     1 
18690 18693     1 
18691 18697     1 
18691 18698     1 
18691 18699     1 
18692 18694     1 
18692 18695     1 
18692 18696     1 
18693 18700     1 
18693 18701     1 
18693 18702     1 
18694 18697     1 
18694 18698     1 
18694 18699     1 
18695 18697     1 
18695 18698     1 
18695 18699     1 
18696 18703     1 
18696 18704     1 
18696 18705     1 
18697 18700     1 
18697 18701     1 
18697 18702     1 
18698 18700     1 
18698 18701     1 
18698 18702     1 
18699 18706     1 
18699 18707     1 
18699 18708     1 
18700 18703     1 
18700 18704     1 
18700 18705     1 
18701 18703     1 
18701 18704     1 
18701 18705     1 
18702 18709     1 
18702 18710     1 
18702 18711     1 
18703 18706     1 
18703 18707     1 
18703 18708     1 
18704 18706     1 
18704 18707     1 
18704 18708     1 
18705 18712     1 
18705 18713     1 
18705 18714     1 
18706 18709     1 
18706 18710     1 
18706 18711     1 
18707 18709     1 
18707 18710     1 
18707 18711     1 
18708 18715     1 
18708 18716     1 
18708 18717     1 
18709 18712     1 
18709 18713     1 
18709 18714     1 
18710 18712     1 
18710 18713     1 
18710 18714     1 
18712 18715     1 
18712 18716     1 
18712 18717     1 
18713 18715     1 
18713 18716     1 
18713 18717     1 
18718 18725     1 
18718 18726     1 
18718 18727     1 
18719 18722     1 
18719 18723     1 
18719 18724     1 
18720 18722     1 
18720 18723     1 
18720 18724     1 
18721 18728     1 
18721 18729     1 
18721 18730     1 
18722 18725     1 
18722 18726     1 
18722 18727     1 
18723 18725     1 
18723 18726     1 
18723 18727     1 
18724 18731     1 
18724 18732     1 
18724 18733     1 
18725 18728     1 
18725 18729     1 
18725 18730     1 
18726 18728     1 
18726 18729     1 
18726 18730     1 
18727 18734     1 
18727 18735     1 
18727 18736     1 
18728 18731     1 
18728 18732     1 
18728 18733     1 
18729 18731     1 
18729 18732     1 
18729 18733     1 
18730 18737     1 
18730 18738     1 
18730 18739     1 
18731 18734     1 
18731 18735     1 
18731 18736     1 
18732 18734     1 
18732 18735     1 
18732 18736     1 
18733 18740     1 
18733 18741     1 
18733 18742     1 
18734 18737     1 
18734 18738     1 
18734 18739     1 
18735 18737     1 
18735 18738     1 
18735 18739     1 
18736 18743     1 
18736 18744     1 
18736 18745     1 
18737 18740     1 
18737 18741     1 
18737 18742     1 
18738 18740     1 
18738 18741     1 
18738 18742     1 
18739 18746     1 
18739 18747     1 
18739 18748     1 
18740 18743     1 
18740 18744     1 
18740 18745     1 
18741 18743     1 
18741 18744     1 
18741 18745     1 
18742 18749     1 
18742 18750     1 
18742 18751     1 
18743 18746     1 
18743 18747     1 
18743 18748     1 
18744 18746     1 
18744 18747     1 
18744 18748     1 
18745 18752     1 
18745 18753     1 
18745 18754     1 
18746 18749     1 
18746 18750     1 
18746 18751     1 
18747 18749     1 
18747 18750     1 
18747 18751     1 
18748 18755     1 
18748 18756     1 
18748 18757     1 
18749 18752     1 
18749 18753     1 
18749 18754     1 
18750 18752     1 
18750 18753     1 
18750 18754     1 
18751 18758     1 
18751 18759     1 
18751 18760     1 
18752 18755     1 
18752 18756     1 
18752 18757     1 
18753 18755     1 
18753 18756     1 
18753 18757     1 
18755 18758     1 
18755 18759     1 
18755 18760     1 
18756 18758     1 
18756 18759     1 
18756 18760     1 
18761 18778     1 
18761 18779     1 
18761 18783     1 
18762 18766     1 
18762 18767     1 
18762 18768     1 
18762 18770     1 
18762 18771     1 
18762 18772     1 
18762 18774     1 
18762 18775     1 
18762 18776     1 
18762 18780     1 
18763 18765     1 
18763 18769     1 
18763 18773     1 
18763 18778     1 
18763 18779     1 
18763 18783     1 
18764 18765     1 
18764 18769     1 
18764 18773     1 
18764 18778     1 
18764 18779     1 
18764 18783     1 
18765 18770     1 
18765 18771     1 
18765 18772     1 
18765 18774     1 
18765 18775     1 
18765 18776     1 
18765 18777     1 
18766 18769     1 
18766 18773     1 
18767 18769     1 
18767 18773     1 
18768 18769     1 
18768 18773     1 
18769 18774     1 
18769 18775     1 
18769 18776     1 
18769 18777     1 
18770 18773     1 
18771 18773     1 
18772 18773     1 
18773 18777     1 
18777 18781     1 
18777 18782     1 
18777 18784     1 
18778 18780     1 
18779 18780     1 
18780 18786     1 
18780 18787     1 
18780 18788     1 
18781 18785     1 
18782 18785     1 
18783 18785     1 
18784 18789     1 
18784 18790     1 
18784 18796     1 
18785 18791     1 
18785 18797     1 
18785 18798     1 
18785 18799     1 
18786 18789     1 
18786 18790     1 
18786 18796     1 
18787 18789     1 
18787 18790     1 
18787 18796     1 
18788 18792     1 
18788 18793     1 
18788 18800     1 
18789 18791     1 
18789 18797     1 
18789 18798     1 
18789 18799     1 
18790 18794     1 
18790 18795     1 
18790 18797     1 
18790 18798     1 
18790 18799     1 
18790 18805     1 
18791 18796     1 
18791 18806     1 
18791 18807     1 
18791 18808     1 
18792 18794     1 
18792 18795     1 
18792 18805     1 
18793 18809     1 
18793 18810     1 
18793 18811     1 
18794 18806     1 
18794 18807     1 
18794 18808     1 
18795 18806     1 
18795 18807     1 
18795 18808     1 
18796 18801     1 
18796 18802     1 
18797 18800     1 
18798 18800     1 
18799 18803     1 
18799 18804     1 
18799 18852     1 
18800 18853     1 
18800 18854     1 
18800 18855     1 
18801 18803     1 
18801 18804     1 
18801 18852     1 
18802 18856     1 
18802 18857     1 
18802 18858     1 
18803 18853     1 
18803 18854     1 
18803 18855     1 
18804 18853     1 
18804 18854     1 
18804 18855     1 
18805 18812     1 
18805 18813     1 
18805 18814     1 
18806 18809     1 
18806 18810     1 
18806 18811     1 
18807 18809     1 
18807 18810     1 
18807 18811     1 
18808 18815     1 
18808 18816     1 
18808 18817     1 
18809 18812     1 
18809 18813     1 
18809 18814     1 
18810 18812     1 
18810 18813     1 
18810 18814     1 
18811 18818     1 
18811 18819     1 
18811 18820     1 
18812 18815     1 
18812 18816     1 
18812 18817     1 
18813 18815     1 
18813 18816     1 
18813 18817     1 
18814 18821     1 
18814 18822     1 
18814 18823     1 
18815 18818     1 
18815 18819     1 
18815 18820     1 
18816 18818     1 
18816 18819     1 
18816 18820     1 
18817 18824     1 
18817 18825     1 
18818 18821     1 
18818 18822     1 
18818 18823     1 
18819 18821     1 
18819 18822     1 
18819 18823     1 
18820 18826     1 
18820 18827     1 
18821 18824     1 
18821 18825     1 
18822 18824     1 
18822 18825     1 
18823 18828     1 
18823 18829     1 
18823 18830     1 
18824 18826     1 
18824 18827     1 
18825 18831     1 
18825 18832     1 
18825 18833     1 
18826 18828     1 
18826 18829     1 
18826 18830     1 
18827 18834     1 
18827 18835     1 
18827 18836     1 
18828 18831     1 
18828 18832     1 
18828 18833     1 
18829 18831     1 
18829 18832     1 
18829 18833     1 
18830 18837     1 
18830 18838     1 
18830 18839     1 
18831 18834     1 
18831 18835     1 
18831 18836     1 
18832 18834     1 
18832 18835     1 
18832 18836     1 
18833 18840     1 
18833 18841     1 
18833 18842     1 
18834 18837     1 
18834 18838     1 
18834 18839     1 
18835 18837     1 
18835 18838     1 
18835 18839     1 
18836 18843     1 
18836 18844     1 
18836 18845     1 
18837 18840     1 
18837 18841     1 
18837 18842     1 
18838 18840     1 
18838 18841     1 
18838 18842     1 
18839 18846     1 
18839 18847     1 
18839 18848     1 
18840 18843     1 
18840 18844     1 
18840 18845     1 
18841 18843     1 
18841 18844     1 
18841 18845     1 
18842 18849     1 
18842 18850     1 
18842 18851     1 
18843 18846     1 
18843 18847     1 
18843 18848     1 
18844 18846     1 
18844 18847     1 
18844 18848     1 
18846 18849     1 
18846 18850     1 
18846 18851     1 
18847 18849     1 
18847 18850     1 
18847 18851     1 
18852 18859     1 
18852 18860     1 
18852 18861     1 
18853 18856     1 
18853 18857     1 
18853 18858     1 
18854 18856     1 
18854 18857     1 
18854 18858     1 
18855 18862     1 
18855 18863     1 
18855 18864     1 
18856 18859     1 
18856 18860     1 
18856 18861     1 
18857 18859     1 
18857 18860     1 
18857 18861     1 
18858 18865     1 
18858 18866     1 
18858 18867     1 
18859 18862     1 
18859 18863     1 
18859 18864     1 
18860 18862     1 
18860 18863     1 
18860 18864     1 
18861 18868     1 
18861 18869     1 
18861 18870     1 
18862 18865     1 
18862 18866     1 
18862 18867     1 
18863 18865     1 
18863 18866     1 
18863 18867     1 
18864 18871     1 
18864 18872     1 
18864 18873     1 
18865 18868     1 
18865 18869     1 
18865 18870     1 
18866 18868     1 
18866 18869     1 
18866 18870     1 
18867 18874     1 
18867 18875     1 
18867 18876     1 
18868 18871     1 
18868 18872     1 
18868 18873     1 
18869 18871     1 
18869 18872     1 
18869 18873     1 
18870 18877     1 
18870 18878     1 
18870 18879     1 
18871 18874     1 
18871 18875     1 
18871 18876     1 
18872 18874     1 
18872 18875     1 
18872 18876     1 
18873 18880     1 
18873 18881     1 
18873 18882     1 
18874 18877     1 
18874 18878     1 
18874 18879     1 
18875 18877     1 
18875 18878     1 
18875 18879     1 
18876 18883     1 
18876 18884     1 
18876 18885     1 
18877 18880     1 
18877 18881     1 
18877 18882     1 
18878 18880     1 
18878 18881     1 
18878 18882     1 
18879 18886     1 
18879 18887     1 
18879 18888     1 
18880 18883     1 
18880 18884     1 
18880 18885     1 
18881 18883     1 
18881 18884     1 
18881 18885     1 
18882 18889     1 
18882 18890     1 
18882 18891     1 
18883 18886     1 
18883 18887     1 
18883 18888     1 
18884 18886     1 
18884 18887     1 
18884 18888     1 
18885 18892     1 
18885 18893     1 
18885 18894     1 
18886 18889     1 
18886 18890     1 
18886 18891     1 
18887 18889     1 
18887 18890     1 
18887 18891     1 
18889 18892     1 
18889 18893     1 
18889 18894     1 
18890 18892     1 
18890 18893     1 
18890 18894     1 
18895 18912     1 
18895 18913     1 
18895 18917     1 
18896 18900     1 
18896 18901     1 
18896 18902     1 
18896 18904     1 
18896 18905     1 
18896 18906     1 
18896 18908     1 
18896 18909     1 
18896 18910     1 
18896 18914     1 
18897 18899     1 
18897 18903     1 
18897 18907     1 
18897 18912     1 
18897 18913     1 
18897 18917     1 
18898 18899     1 
18898 18903     1 
18898 18907     1 
18898 18912     1 
18898 18913     1 
18898 18917     1 
18899 18904     1 
18899 18905     1 
18899 18906     1 
18899 18908     1 
18899 18909     1 
18899 18910     1 
18899 18911     1 
18900 18903     1 
18900 18907     1 
18901 18903     1 
18901 18907     1 
18902 18903     1 
18902 18907     1 
18903 18908     1 
18903 18909     1 
18903 18910     1 
18903 18911     1 
18904 18907     1 
18905 18907     1 
18906 18907     1 
18907 18911     1 
18911 18915     1 
18911 18916     1 
18911 18918     1 
18912 18914     1 
18913 18914     1 
18914 18920     1 
18914 18921     1 
18914 18922     1 
18915 18919     1 
18916 18919     1 
18917 18919     1 
18918 18923     1 
18918 18924     1 
18918 18930     1 
18919 18925     1 
18919 18931     1 
18919 18932     1 
18919 18933     1 
18920 18923     1 
18920 18924     1 
18920 18930     1 
18921 18923     1 
18921 18924     1 
18921 18930     1 
18922 18926     1 
18922 18927     1 
18922 18934     1 
18923 18925     1 
18923 18931     1 
18923 18932     1 
18923 18933     1 
18924 18928     1 
18924 18929     1 
18924 18931     1 
18924 18932     1 
18924 18933     1 
18924 18939     1 
18925 18930     1 
18925 18940     1 
18925 18941     1 
18925 18942     1 
18926 18928     1 
18926 18929     1 
18926 18939     1 
18927 18943     1 
18927 18944     1 
18927 18945     1 
18928 18940     1 
18928 18941     1 
18928 18942     1 
18929 18940     1 
18929 18941     1 
18929 18942     1 
18930 18935     1 
18930 18936     1 
18931 18934     1 
18932 18934     1 
18933 18937     1 
18933 18938     1 
18933 18986     1 
18934 18987     1 
18934 18988     1 
18934 18989     1 
18935 18937     1 
18935 18938     1 
18935 18986     1 
18936 18990     1 
18936 18991     1 
18936 18992     1 
18937 18987     1 
18937 18988     1 
18937 18989     1 
18938 18987     1 
18938 18988     1 
18938 18989     1 
18939 18946     1 
18939 18947     1 
18939 18948     1 
18940 18943     1 
18940 18944     1 
18940 18945     1 
18941 18943     1 
18941 18944     1 
18941 18945     1 
18942 18949     1 
18942 18950     1 
18942 18951     1 
18943 18946     1 
18943 18947     1 
18943 18948     1 
18944 18946     1 
18944 18947     1 
18944 18948     1 
18945 18952     1 
18945 18953     1 
18945 18954     1 
18946 18949     1 
18946 18950     1 
18946 18951     1 
18947 18949     1 
18947 18950     1 
18947 18951     1 
18948 18955     1 
18948 18956     1 
18948 18957     1 
18949 18952     1 
18949 18953     1 
18949 18954     1 
18950 18952     1 
18950 18953     1 
18950 18954     1 
18951 18958     1 
18951 18959     1 
18952 18955     1 
18952 18956     1 
18952 18957     1 
18953 18955     1 
18953 18956     1 
18953 18957     1 
18954 18960     1 
18954 18961     1 
18955 18958     1 
18955 18959     1 
18956 18958     1 
18956 18959     1 
18957 18962     1 
18957 18963     1 
18957 18964     1 
18958 18960     1 
18958 18961     1 
18959 18965     1 
18959 18966     1 
18959 18967     1 
18960 18962     1 
18960 18963     1 
18960 18964     1 
18961 18968     1 
18961 18969     1 
18961 18970     1 
18962 18965     1 
18962 18966     1 
18962 18967     1 
18963 18965     1 
18963 18966     1 
18963 18967     1 
18964 18971     1 
18964 18972     1 
18964 18973     1 
18965 18968     1 
18965 18969     1 
18965 18970     1 
18966 18968     1 
18966 18969     1 
18966 18970     1 
18967 18974     1 
18967 18975     1 
18967 18976     1 
18968 18971     1 
18968 18972     1 
18968 18973     1 
18969 18971     1 
18969 18972     1 
18969 18973     1 
18970 18977     1 
18970 18978     1 
18970 18979     1 
18971 18974     1 
18971 18975     1 
18971 18976     1 
18972 18974     1 
18972 18975     1 
18972 18976     1 
18973 18980     1 
18973 18981     1 
18973 18982     1 
18974 18977     1 
18974 18978     1 
18974 18979     1 
18975 18977     1 
18975 18978     1 
18975 18979     1 
18976 18983     1 
18976 18984     1 
18976 18985     1 
18977 18980     1 
18977 18981     1 
18977 18982     1 
18978 18980     1 
18978 18981     1 
18978 18982     1 
18980 18983     1 
18980 18984     1 
18980 18985     1 
18981 18983     1 
18981 18984     1 
18981 18985     1 
18986 18993     1 
18986 18994     1 
18986 18995     1 
18987 18990     1 
18987 18991     1 
18987 18992     1 
18988 18990     1 
18988 18991     1 
18988 18992     1 
18989 18996     1 
18989 18997     1 
18989 18998     1 
18990 18993     1 
18990 18994     1 
18990 18995     1 
18991 18993     1 
18991 18994     1 
18991 18995     1 
18992 18999     1 
18992 19000     1 
18992 19001     1 
18993 18996     1 
18993 18997     1 
18993 18998     1 
18994 18996     1 
18994 18997     1 
18994 18998     1 
18995 19002     1 
18995 19003     1 
18995 19004     1 
18996 18999     1 
18996 19000     1 
18996 19001     1 
18997 18999     1 
18997 19000     1 
18997 19001     1 
18998 19005     1 
18998 19006     1 
18998 19007     1 
18999 19002     1 
18999 19003     1 
18999 19004     1 
19000 19002     1 
19000 19003     1 
19000 19004     1 
19001 19008     1 
19001 19009     1 
19001 19010     1 
19002 19005     1 
19002 19006     1 
19002 19007     1 
19003 19005     1 
19003 19006     1 
19003 19007     1 
19004 19011     1 
19004 19012     1 
19004 19013     1 
19005 19008     1 
19005 19009     1 
19005 19010     1 
19006 19008     1 
19006 19009     1 
19006 19010     1 
19007 19014     1 
19007 19015     1 
19007 19016     1 
19008 19011     1 
19008 19012     1 
19008 19013     1 
19009 19011     1 
19009 19012     1 
19009 19013     1 
19010 19017     1 
19010 19018     1 
19010 19019     1 
19011 19014     1 
19011 19015     1 
19011 19016     1 
19012 19014     1 
19012 19015     1 
19012 19016     1 
19013 19020     1 
19013 19021     1 
19013 19022     1 
19014 19017     1 
19014 19018     1 
19014 19019     1 
19015 19017     1 
19015 19018     1 
19015 19019     1 
19016 19023     1 
19016 19024     1 
19016 19025     1 
19017 19020     1 
19017 19021     1 
19017 19022     1 
19018 19020     1 
19018 19021     1 
19018 19022     1 
19019 19026     1 
19019 19027     1 
19019 19028     1 
19020 19023     1 
19020 19024     1 
19020 19025     1 
19021 19023     1 
19021 19024     1 
19021 19025     1 
19023 19026     1 
19023 19027     1 
19023 19028     1 
19024 19026     1 
19024 19027     1 
19024 19028     1 
19029 19046     1 
19029 19047     1 
19029 19051     1 
19030 19034     1 
19030 19035     1 
19030 19036     1 
19030 19038     1 
19030 19039     1 
19030 19040     1 
19030 19042     1 
19030 19043     1 
19030 19044     1 
19030 19048     1 
19031 19033     1 
19031 19037     1 
19031 19041     1 
19031 19046     1 
19031 19047     1 
19031 19051     1 
19032 19033     1 
19032 19037     1 
19032 19041     1 
19032 19046     1 
19032 19047     1 
19032 19051     1 
19033 19038     1 
19033 19039     1 
19033 19040     1 
19033 19042     1 
19033 19043     1 
19033 19044     1 
19033 19045     1 
19034 19037     1 
19034 19041     1 
19035 19037     1 
19035 19041     1 
19036 19037     1 
19036 19041     1 
19037 19042     1 
19037 19043     1 
19037 19044     1 
19037 19045     1 
19038 19041     1 
19039 19041     1 
19040 19041     1 
19041 19045     1 
19045 19049     1 
19045 19050     1 
19045 19052     1 
19046 19048     1 
19047 19048     1 
19048 19054     1 
19048 19055     1 
19048 19056     1 
19049 19053     1 
19050 19053     1 
19051 19053     1 
19052 19057     1 
19052 19058     1 
19052 19064     1 
19053 19059     1 
19053 19065     1 
19053 19066     1 
19053 19067     1 
19054 19057     1 
19054 19058     1 
19054 19064     1 
19055 19057     1 
19055 19058     1 
19055 19064     1 
19056 19060     1 
19056 19061     1 
19056 19068     1 
19057 19059     1 
19057 19065     1 
19057 19066     1 
19057 19067     1 
19058 19062     1 
19058 19063     1 
19058 19065     1 
19058 19066     1 
19058 19067     1 
19058 19073     1 
19059 19064     1 
19059 19074     1 
19059 19075     1 
19059 19076     1 
19060 19062     1 
19060 19063     1 
19060 19073     1 
19061 19077     1 
19061 19078     1 
19061 19079     1 
19062 19074     1 
19062 19075     1 
19062 19076     1 
19063 19074     1 
19063 19075     1 
19063 19076     1 
19064 19069     1 
19064 19070     1 
19065 19068     1 
19066 19068     1 
19067 19071     1 
19067 19072     1 
19067 19120     1 
19068 19121     1 
19068 19122     1 
19068 19123     1 
19069 19071     1 
19069 19072     1 
19069 19120     1 
19070 19124     1 
19070 19125     1 
19070 19126     1 
19071 19121     1 
19071 19122     1 
19071 19123     1 
19072 19121     1 
19072 19122     1 
19072 19123     1 
19073 19080     1 
19073 19081     1 
19073 19082     1 
19074 19077     1 
19074 19078     1 
19074 19079     1 
19075 19077     1 
19075 19078     1 
19075 19079     1 
19076 19083     1 
19076 19084     1 
19076 19085     1 
19077 19080     1 
19077 19081     1 
19077 19082     1 
19078 19080     1 
19078 19081     1 
19078 19082     1 
19079 19086     1 
19079 19087     1 
19079 19088     1 
19080 19083     1 
19080 19084     1 
19080 19085     1 
19081 19083     1 
19081 19084     1 
19081 19085     1 
19082 19089     1 
19082 19090     1 
19082 19091     1 
19083 19086     1 
19083 19087     1 
19083 19088     1 
19084 19086     1 
19084 19087     1 
19084 19088     1 
19085 19092     1 
19085 19093     1 
19086 19089     1 
19086 19090     1 
19086 19091     1 
19087 19089     1 
19087 19090     1 
19087 19091     1 
19088 19094     1 
19088 19095     1 
19089 19092     1 
19089 19093     1 
19090 19092     1 
19090 19093     1 
19091 19096     1 
19091 19097     1 
19091 19098     1 
19092 19094     1 
19092 19095     1 
19093 19099     1 
19093 19100     1 
19093 19101     1 
19094 19096     1 
19094 19097     1 
19094 19098     1 
19095 19102     1 
19095 19103     1 
19095 19104     1 
19096 19099     1 
19096 19100     1 
19096 19101     1 
19097 19099     1 
19097 19100     1 
19097 19101     1 
19098 19105     1 
19098 19106     1 
19098 19107     1 
19099 19102     1 
19099 19103     1 
19099 19104     1 
19100 19102     1 
19100 19103     1 
19100 19104     1 
19101 19108     1 
19101 19109     1 
19101 19110     1 
19102 19105     1 
19102 19106     1 
19102 19107     1 
19103 19105     1 
19103 19106     1 
19103 19107     1 
19104 19111     1 
19104 19112     1 
19104 19113     1 
19105 19108     1 
19105 19109     1 
19105 19110     1 
19106 19108     1 
19106 19109     1 
19106 19110     1 
19107 19114     1 
19107 19115     1 
19107 19116     1 
19108 19111     1 
19108 19112     1 
19108 19113     1 
19109 19111     1 
19109 19112     1 
19109 19113     1 
19110 19117     1 
19110 19118     1 
19110 19119     1 
19111 19114     1 
19111 19115     1 
19111 19116     1 
19112 19114     1 
19112 19115     1 
19112 19116     1 
19114 19117     1 
19114 19118     1 
19114 19119     1 
19115 19117     1 
19115 19118     1 
19115 19119     1 
19120 19127     1 
19120 19128     1 
19120 19129     1 
19121 19124     1 
19121 19125     1 
19121 19126     1 
19122 19124     1 
19122 19125     1 
19122 19126     1 
19123 19130     1 
19123 19131     1 
19123 19132     1 
19124 19127     1 
19124 19128     1 
19124 19129     1 
19125 19127     1 
19125 19128     1 
19125 19129     1 
19126 19133     1 
19126 19134     1 
19126 19135     1 
19127 19130     1 
19127 19131     1 
19127 19132     1 
19128 19130     1 
19128 19131     1 
19128 19132     1 
19129 19136     1 
19129 19137     1 
19129 19138     1 
19130 19133     1 
19130 19134     1 
19130 19135     1 
19131 19133     1 
19131 19134     1 
19131 19135     1 
19132 19139     1 
19132 19140     1 
19132 19141     1 
19133 19136     1 
19133 19137     1 
19133 19138     1 
19134 19136     1 
19134 19137     1 
19134 19138     1 
19135 19142     1 
19135 19143     1 
19135 19144     1 
19136 19139     1 
19136 19140     1 
19136 19141     1 
19137 19139     1 
19137 19140     1 
19137 19141     1 
19138 19145     1 
19138 19146     1 
19138 19147     1 
19139 19142     1 
19139 19143     1 
19139 19144     1 
19140 19142     1 
19140 19143     1 
19140 19144     1 
19141 19148     1 
19141 19149     1 
19141 19150     1 
19142 19145     1 
19142 19146     1 
19142 19147     1 
19143 19145     1 
19143 19146     1 
19143 19147     1 
19144 19151     1 
19144 19152     1 
19144 19153     1 
19145 19148     1 
19145 19149     1 
19145 19150     1 
19146 19148     1 
19146 19149     1 
19146 19150     1 
19147 19154     1 
19147 19155     1 
19147 19156     1 
19148 19151     1 
19148 19152     1 
19148 19153     1 
19149 19151     1 
19149 19152     1 
19149 19153     1 
19150 19157     1 
19150 19158     1 
19150 19159     1 
19151 19154     1 
19151 19155     1 
19151 19156     1 
19152 19154     1 
19152 19155     1 
19152 19156     1 
19153 19160     1 
19153 19161     1 
19153 19162     1 
19154 19157     1 
19154 19158     1 
19154 19159     1 
19155 19157     1 
19155 19158     1 
19155 19159     1 
19157 19160     1 
19157 19161     1 
19157 19162     1 
19158 19160     1 
19158 19161     1 
19158 19162     1 
19163 19180     1 
19163 19181     1 
19163 19185     1 
19164 19168     1 
19164 19169     1 
19164 19170     1 
19164 19172     1 
19164 19173     1 
19164 19174     1 
19164 19176     1 
19164 19177     1 
19164 19178     1 
19164 19182     1 
19165 19167     1 
19165 19171     1 
19165 19175     1 
19165 19180     1 
19165 19181     1 
19165 19185     1 
19166 19167     1 
19166 19171     1 
19166 19175     1 
19166 19180     1 
19166 19181     1 
19166 19185     1 
19167 19172     1 
19167 19173     1 
19167 19174     1 
19167 19176     1 
19167 19177     1 
19167 19178     1 
19167 19179     1 
19168 19171     1 
19168 19175     1 
19169 19171     1 
19169 19175     1 
19170 19171     1 
19170 19175     1 
19171 19176     1 
19171 19177     1 
19171 19178     1 
19171 19179     1 
19172 19175     1 
19173 19175     1 
19174 19175     1 
19175 19179     1 
19179 19183     1 
19179 19184     1 
19179 19186     1 
19180 19182     1 
19181 19182     1 
19182 19188     1 
19182 19189     1 
19182 19190     1 
19183 19187     1 
19184 19187     1 
19185 19187     1 
19186 19191     1 
19186 19192     1 
19186 19198     1 
19187 19193     1 
19187 19199     1 
19187 19200     1 
19187 19201     1 
19188 19191     1 
19188 19192     1 
19188 19198     1 
19189 19191     1 
19189 19192     1 
19189 19198     1 
19190 19194     1 
19190 19195     1 
19190 19202     1 
19191 19193     1 
19191 19199     1 
19191 19200     1 
19191 19201     1 
19192 19196     1 
19192 19197     1 
19192 19199     1 
19192 19200     1 
19192 19201     1 
19192 19207     1 
19193 19198     1 
19193 19208     1 
19193 19209     1 
19193 19210     1 
19194 19196     1 
19194 19197     1 
19194 19207     1 
19195 19211     1 
19195 19212     1 
19195 19213     1 
19196 19208     1 
19196 19209     1 
19196 19210     1 
19197 19208     1 
19197 19209     1 
19197 19210     1 
19198 19203     1 
19198 19204     1 
19199 19202     1 
19200 19202     1 
19201 19205     1 
19201 19206     1 
19201 19254     1 
19202 19255     1 
19202 19256     1 
19202 19257     1 
19203 19205     1 
19203 19206     1 
19203 19254     1 
19204 19258     1 
19204 19259     1 
19204 19260     1 
19205 19255     1 
19205 19256     1 
19205 19257     1 
19206 19255     1 
19206 19256     1 
19206 19257     1 
19207 19214     1 
19207 19215     1 
19207 19216     1 
19208 19211     1 
19208 19212     1 
19208 19213     1 
19209 19211     1 
19209 19212     1 
19209 19213     1 
19210 19217     1 
19210 19218     1 
19210 19219     1 
19211 19214     1 
19211 19215     1 
19211 19216     1 
19212 19214     1 
19212 19215     1 
19212 19216     1 
19213 19220     1 
19213 19221     1 
19213 19222     1 
19214 19217     1 
19214 19218     1 
19214 19219     1 
19215 19217     1 
19215 19218     1 
19215 19219     1 
19216 19223     1 
19216 19224     1 
19216 19225     1 
19217 19220     1 
19217 19221     1 
19217 19222     1 
19218 19220     1 
19218 19221     1 
19218 19222     1 
19219 19226     1 
19219 19227     1 
19220 19223     1 
19220 19224     1 
19220 19225     1 
19221 19223     1 
19221 19224     1 
19221 19225     1 
19222 19228     1 
19222 19229     1 
19223 19226     1 
19223 19227     1 
19224 19226     1 
19224 19227     1 
19225 19230     1 
19225 19231     1 
19225 19232     1 
19226 19228     1 
19226 19229     1 
19227 19233     1 
19227 19234     1 
19227 19235     1 
19228 19230     1 
19228 19231     1 
19228 19232     1 
19229 19236     1 
19229 19237     1 
19229 19238     1 
19230 19233     1 
19230 19234     1 
19230 19235     1 
19231 19233     1 
19231 19234     1 
19231 19235     1 
19232 19239     1 
19232 19240     1 
19232 19241     1 
19233 19236     1 
19233 19237     1 
19233 19238     1 
19234 19236     1 
19234 19237     1 
19234 19238     1 
19235 19242     1 
19235 19243     1 
19235 19244     1 
19236 19239     1 
19236 19240     1 
19236 19241     1 
19237 19239     1 
19237 19240     1 
19237 19241     1 
19238 19245     1 
19238 19246     1 
19238 19247     1 
19239 19242     1 
19239 19243     1 
19239 19244     1 
19240 19242     1 
19240 19243     1 
19240 19244     1 
19241 19248     1 
19241 19249     1 
19241 19250     1 
19242 19245     1 
19242 19246     1 
19242 19247     1 
19243 19245     1 
19243 19246     1 
19243 19247     1 
19244 19251     1 
19244 19252     1 
19244 19253     1 
19245 19248     1 
19245 19249     1 
19245 19250     1 
19246 19248     1 
19246 19249     1 
19246 19250     1 
19248 19251     1 
19248 19252     1 
19248 19253     1 
19249 19251     1 
19249 19252     1 
19249 19253     1 
19254 19261     1 
19254 19262     1 
19254 19263     1 
19255 19258     1 
19255 19259     1 
19255 19260     1 
19256 19258     1 
19256 19259     1 
19256 19260     1 
19257 19264     1 
19257 19265     1 
19257 19266     1 
19258 19261     1 
19258 19262     1 
19258 19263     1 
19259 19261     1 
19259 19262     1 
19259 19263     1 
19260 19267     1 
19260 19268     1 
19260 19269     1 
19261 19264     1 
19261 19265     1 
19261 19266     1 
19262 19264     1 
19262 19265     1 
19262 19266     1 
19263 19270     1 
19263 19271     1 
19263 19272     1 
19264 19267     1 
19264 19268     1 
19264 19269     1 
19265 19267     1 
19265 19268     1 
19265 19269     1 
19266 19273     1 
19266 19274     1 
19266 19275     1 
19267 19270     1 
19267 19271     1 
19267 19272     1 
19268 19270     1 
19268 19271     1 
19268 19272     1 
19269 19276     1 
19269 19277     1 
19269 19278     1 
19270 19273     1 
19270 19274     1 
19270 19275     1 
19271 19273     1 
19271 19274     1 
19271 19275     1 
19272 19279     1 
19272 19280     1 
19272 19281     1 
19273 19276     1 
19273 19277     1 
19273 19278     1 
19274 19276     1 
19274 19277     1 
19274 19278     1 
19275 19282     1 
19275 19283     1 
19275 19284     1 
19276 19279     1 
19276 19280     1 
19276 19281     1 
19277 19279     1 
19277 19280     1 
19277 19281     1 
19278 19285     1 
19278 19286     1 
19278 19287     1 
19279 19282     1 
19279 19283     1 
19279 19284     1 
19280 19282     1 
19280 19283     1 
19280 19284     1 
19281 19288     1 
19281 19289     1 
19281 19290     1 
19282 19285     1 
19282 19286     1 
19282 19287     1 
19283 19285     1 
19283 19286     1 
19283 19287     1 
19284 19291     1 
19284 19292     1 
19284 19293     1 
19285 19288     1 
19285 19289     1 
19285 19290     1 
19286 19288     1 
19286 19289     1 
19286 19290     1 
19287 19294     1 
19287 19295     1 
19287 19296     1 
19288 19291     1 
19288 19292     1 
19288 19293     1 
19289 19291     1 
19289 19292     1 
19289 19293     1 
19291 19294     1 
19291 19295     1 
19291 19296     1 
19292 19294     1 
19292 19295     1 
19292 19296     1 
19297 19314     1 
19297 19315     1 
19297 19319     1 
19298 19302     1 
19298 19303     1 
19298 19304     1 
19298 19306     1 
19298 19307     1 
19298 19308     1 
19298 19310     1 
19298 19311     1 
19298 19312     1 
19298 19316     1 
19299 19301     1 
19299 19305     1 
19299 19309     1 
19299 19314     1 
19299 19315     1 
19299 19319     1 
19300 19301     1 
19300 19305     1 
19300 19309     1 
19300 19314     1 
19300 19315     1 
19300 19319     1 
19301 19306     1 
19301 19307     1 
19301 19308     1 
19301 19310     1 
19301 19311     1 
19301 19312     1 
19301 19313     1 
19302 19305     1 
19302 19309     1 
19303 19305     1 
19303 19309     1 
19304 19305     1 
19304 19309     1 
19305 19310     1 
19305 19311     1 
19305 19312     1 
19305 19313     1 
19306 19309     1 
19307 19309     1 
19308 19309     1 
19309 19313     1 
19313 19317     1 
19313 19318     1 
19313 19320     1 
19314 19316     1 
19315 19316     1 
19316 19322     1 
19316 19323     1 
19316 19324     1 
19317 19321     1 
19318 19321     1 
19319 19321     1 
19320 19325     1 
19320 19326     1 
19320 19332     1 
19321 19327     1 
19321 19333     1 
19321 19334     1 
19321 19335     1 
19322 19325     1 
19322 19326     1 
19322 19332     1 
19323 19325     1 
19323 19326     1 
19323 19332     1 
19324 19328     1 
19324 19329     1 
19324 19336     1 
19325 19327     1 
19325 19333     1 
19325 19334     1 
19325 19335     1 
19326 19330     1 
19326 19331     1 
19326 19333     1 
19326 19334     1 
19326 19335     1 
19326 19341     1 
19327 19332     1 
19327 19342     1 
19327 19343     1 
19327 19344     1 
19328 19330     1 
19328 19331     1 
19328 19341     1 
19329 19345     1 
19329 19346     1 
19329 19347     1 
19330 19342     1 
19330 19343     1 
19330 19344     1 
19331 19342     1 
19331 19343     1 
19331 19344     1 
19332 19337     1 
19332 19338     1 
19333 19336     1 
19334 19336     1 
19335 19339     1 
19335 19340     1 
19335 19388     1 
19336 19389     1 
19336 19390     1 
19336 19391     1 
19337 19339     1 
19337 19340     1 
19337 19388     1 
19338 19392     1 
19338 19393     1 
19338 19394     1 
19339 19389     1 
19339 19390     1 
19339 19391     1 
19340 19389     1 
19340 19390     1 
19340 19391     1 
19341 19348     1 
19341 19349     1 
19341 19350     1 
19342 19345     1 
19342 19346     1 
19342 19347     1 
19343 19345     1 
19343 19346     1 
19343 19347     1 
19344 19351     1 
19344 19352     1 
19344 19353     1 
19345 19348     1 
19345 19349     1 
19345 19350     1 
19346 19348     1 
19346 19349     1 
19346 19350     1 
19347 19354     1 
19347 19355     1 
19347 19356     1 
19348 19351     1 
19348 19352     1 
19348 19353     1 
19349 19351     1 
19349 19352     1 
19349 19353     1 
19350 19357     1 
19350 19358     1 
19350 19359     1 
19351 19354     1 
19351 19355     1 
19351 19356     1 
19352 19354     1 
19352 19355     1 
19352 19356     1 
19353 19360     1 
19353 19361     1 
19354 19357     1 
19354 19358     1 
19354 19359     1 
19355 19357     1 
19355 19358     1 
19355 19359     1 
19356 19362     1 
19356 19363     1 
19357 19360     1 
19357 19361     1 
19358 19360     1 
19358 19361     1 
19359 19364     1 
19359 19365     1 
19359 19366     1 
19360 19362     1 
19360 19363     1 
19361 19367     1 
19361 19368     1 
19361 19369     1 
19362 19364     1 
19362 19365     1 
19362 19366     1 
19363 19370     1 
19363 19371     1 
19363 19372     1 
19364 19367     1 
19364 19368     1 
19364 19369     1 
19365 19367     1 
19365 19368     1 
19365 19369     1 
19366 19373     1 
19366 19374     1 
19366 19375     1 
19367 19370     1 
19367 19371     1 
19367 19372     1 
19368 19370     1 
19368 19371     1 
19368 19372     1 
19369 19376     1 
19369 19377     1 
19369 19378     1 
19370 19373     1 
19370 19374     1 
19370 19375     1 
19371 19373     1 
19371 19374     1 
19371 19375     1 
19372 19379     1 
19372 19380     1 
19372 19381     1 
19373 19376     1 
19373 19377     1 
19373 19378     1 
19374 19376     1 
19374 19377     1 
19374 19378     1 
19375 19382     1 
19375 19383     1 
19375 19384     1 
19376 19379     1 
19376 19380     1 
19376 19381     1 
19377 19379     1 
19377 19380     1 
19377 19381     1 
19378 19385     1 
19378 19386     1 
19378 19387     1 
19379 19382     1 
19379 19383     1 
19379 19384     1 
19380 19382     1 
19380 19383     1 
19380 19384     1 
19382 19385     1 
19382 19386     1 
19382 19387     1 
19383 19385     1 
19383 19386     1 
19383 19387     1 
19388 19395     1 
19388 19396     1 
19388 19397     1 
19389 19392     1 
19389 19393     1 
19389 19394     1 
19390 19392     1 
19390 19393     1 
19390 19394     1 
19391 19398     1 
19391 19399     1 
19391 19400     1 
19392 19395     1 
19392 19396     1 
19392 19397     1 
19393 19395     1 
19393 19396     1 
19393 19397     1 
19394 19401     1 
19394 19402     1 
19394 19403     1 
19395 19398     1 
19395 19399     1 
19395 19400     1 
19396 19398     1 
19396 19399     1 
19396 19400     1 
19397 19404     1 
19397 19405     1 
19397 19406     1 
19398 19401     1 
19398 19402     1 
19398 19403     1 
19399 19401     1 
19399 19402     1 
19399 19403     1 
19400 19407     1 
19400 19408     1 
19400 19409     1 
19401 19404     1 
19401 19405     1 
19401 19406     1 
19402 19404     1 
19402 19405     1 
19402 19406     1 
19403 19410     1 
19403 19411     1 
19403 19412     1 
19404 19407     1 
19404 19408     1 
19404 19409     1 
19405 19407     1 
19405 19408     1 
19405 19409     1 
19406 19413     1 
19406 19414     1 
19406 19415     1 
19407 19410     1 
19407 19411     1 
19407 19412     1 
19408 19410     1 
19408 19411     1 
19408 19412     1 
19409 19416     1 
19409 19417     1 
19409 19418     1 
19410 19413     1 
19410 19414     1 
19410 19415     1 
19411 19413     1 
19411 19414     1 
19411 19415     1 
19412 19419     1 
19412 19420     1 
19412 19421     1 
19413 19416     1 
19413 19417     1 
19413 19418     1 
19414 19416     1 
19414 19417     1 
19414 19418     1 
19415 19422     1 
19415 19423     1 
19415 19424     1 
19416 19419     1 
19416 19420     1 
19416 19421     1 
19417 19419     1 
19417 19420     1 
19417 19421     1 
19418 19425     1 
19418 19426     1 
19418 19427     1 
19419 19422     1 
19419 19423     1 
19419 19424     1 
19420 19422     1 
19420 19423     1 
19420 19424     1 
19421 19428     1 
19421 19429     1 
19421 19430     1 
19422 19425     1 
19422 19426     1 
19422 19427     1 
19423 19425     1 
19423 19426     1 
19423 19427     1 
19425 19428     1 
19425 19429     1 
19425 19430     1 
19426 19428     1 
19426 19429     1 
19426 19430     1 
19431 19448     1 
19431 19449     1 
19431 19453     1 
19432 19436     1 
19432 19437     1 
19432 19438     1 
19432 19440     1 
19432 19441     1 
19432 19442     1 
19432 19444     1 
19432 19445     1 
19432 19446     1 
19432 19450     1 
19433 19435     1 
19433 19439     1 
19433 19443     1 
19433 19448     1 
19433 19449     1 
19433 19453     1 
19434 19435     1 
19434 19439     1 
19434 19443     1 
19434 19448     1 
19434 19449     1 
19434 19453     1 
19435 19440     1 
19435 19441     1 
19435 19442     1 
19435 19444     1 
19435 19445     1 
19435 19446     1 
19435 19447     1 
19436 19439     1 
19436 19443     1 
19437 19439     1 
19437 19443     1 
19438 19439     1 
19438 19443     1 
19439 19444     1 
19439 19445     1 
19439 19446     1 
19439 19447     1 
19440 19443     1 
19441 19443     1 
19442 19443     1 
19443 19447     1 
19447 19451     1 
19447 19452     1 
19447 19454     1 
19448 19450     1 
19449 19450     1 
19450 19456     1 
19450 19457     1 
19450 19458     1 
19451 19455     1 
19452 19455     1 
19453 19455     1 
19454 19459     1 
19454 19460     1 
19454 19466     1 
19455 19461     1 
19455 19467     1 
19455 19468     1 
19455 19469     1 
19456 19459     1 
19456 19460     1 
19456 19466     1 
19457 19459     1 
19457 19460     1 
19457 19466     1 
19458 19462     1 
19458 19463     1 
19458 19470     1 
19459 19461     1 
19459 19467     1 
19459 19468     1 
19459 19469     1 
19460 19464     1 
19460 19465     1 
19460 19467     1 
19460 19468     1 
19460 19469     1 
19460 19475     1 
19461 19466     1 
19461 19476     1 
19461 19477     1 
19461 19478     1 
19462 19464     1 
19462 19465     1 
19462 19475     1 
19463 19479     1 
19463 19480     1 
19463 19481     1 
19464 19476     1 
19464 19477     1 
19464 19478     1 
19465 19476     1 
19465 19477     1 
19465 19478     1 
19466 19471     1 
19466 19472     1 
19467 19470     1 
19468 19470     1 
19469 19473     1 
19469 19474     1 
19469 19522     1 
19470 19523     1 
19470 19524     1 
19470 19525     1 
19471 19473     1 
19471 19474     1 
19471 19522     1 
19472 19526     1 
19472 19527     1 
19472 19528     1 
19473 19523     1 
19473 19524     1 
19473 19525     1 
19474 19523     1 
19474 19524     1 
19474 19525     1 
19475 19482     1 
19475 19483     1 
19475 19484     1 
19476 19479     1 
19476 19480     1 
19476 19481     1 
19477 19479     1 
19477 19480     1 
19477 19481     1 
19478 19485     1 
19478 19486     1 
19478 19487     1 
19479 19482     1 
19479 19483     1 
19479 19484     1 
19480 19482     1 
19480 19483     1 
19480 19484     1 
19481 19488     1 
19481 19489     1 
19481 19490     1 
19482 19485     1 
19482 19486     1 
19482 19487     1 
19483 19485     1 
19483 19486     1 
19483 19487     1 
19484 19491     1 
19484 19492     1 
19484 19493     1 
19485 19488     1 
19485 19489     1 
19485 19490     1 
19486 19488     1 
19486 19489     1 
19486 19490     1 
19487 19494     1 
19487 19495     1 
19488 19491     1 
19488 19492     1 
19488 19493     1 
19489 19491     1 
19489 19492     1 
19489 19493     1 
19490 19496     1 
19490 19497     1 
19491 19494     1 
19491 19495     1 
19492 19494     1 
19492 19495     1 
19493 19498     1 
19493 19499     1 
19493 19500     1 
19494 19496     1 
19494 19497     1 
19495 19501     1 
19495 19502     1 
19495 19503     1 
19496 19498     1 
19496 19499     1 
19496 19500     1 
19497 19504     1 
19497 19505     1 
19497 19506     1 
19498 19501     1 
19498 19502     1 
19498 19503     1 
19499 19501     1 
19499 19502     1 
19499 19503     1 
19500 19507     1 
19500 19508     1 
19500 19509     1 
19501 19504     1 
19501 19505     1 
19501 19506     1 
19502 19504     1 
19502 19505     1 
19502 19506     1 
19503 19510     1 
19503 19511     1 
19503 19512     1 
19504 19507     1 
19504 19508     1 
19504 19509     1 
19505 19507     1 
19505 19508     1 
19505 19509     1 
19506 19513     1 
19506 19514     1 
19506 19515     1 
19507 19510     1 
19507 19511     1 
19507 19512     1 
19508 19510     1 
19508 19511     1 
19508 19512     1 
19509 19516     1 
19509 19517     1 
19509 19518     1 
19510 19513     1 
19510 19514     1 
19510 19515     1 
19511 19513     1 
19511 19514     1 
19511 19515     1 
19512 19519     1 
19512 19520     1 
19512 19521     1 
19513 19516     1 
19513 19517     1 
19513 19518     1 
19514 19516     1 
19514 19517     1 
19514 19518     1 
19516 19519     1 
19516 19520     1 
19516 19521     1 
19517 19519     1 
19517 19520     1 
19517 19521     1 
19522 19529     1 
19522 19530     1 
19522 19531     1 
19523 19526     1 
19523 19527     1 
19523 19528     1 
19524 19526     1 
19524 19527     1 
19524 19528     1 
19525 19532     1 
19525 19533     1 
19525 19534     1 
19526 19529     1 
19526 19530     1 
19526 19531     1 
19527 19529     1 
19527 19530     1 
19527 19531     1 
19528 19535     1 
19528 19536     1 
19528 19537     1 
19529 19532     1 
19529 19533     1 
19529 19534     1 
19530 19532     1 
19530 19533     1 
19530 19534     1 
19531 19538     1 
19531 19539     1 
19531 19540     1 
19532 19535     1 
19532 19536     1 
19532 19537     1 
19533 19535     1 
19533 19536     1 
19533 19537     1 
19534 19541     1 
19534 19542     1 
19534 19543     1 
19535 19538     1 
19535 19539     1 
19535 19540     1 
19536 19538     1 
19536 19539     1 
19536 19540     1 
19537 19544     1 
19537 19545     1 
19537 19546     1 
19538 19541     1 
19538 19542     1 
19538 19543     1 
19539 19541     1 
19539 19542     1 
19539 19543     1 
19540 19547     1 
19540 19548     1 
19540 19549     1 
19541 19544     1 
19541 19545     1 
19541 19546     1 
19542 19544     1 
19542 19545     1 
19542 19546     1 
19543 19550     1 
19543 19551     1 
19543 19552     1 
19544 19547     1 
19544 19548     1 
19544 19549     1 
19545 19547     1 
19545 19548     1 
19545 19549     1 
19546 19553     1 
19546 19554     1 
19546 19555     1 
19547 19550     1 
19547 19551     1 
19547 19552     1 
19548 19550     1 
19548 19551     1 
19548 19552     1 
19549 19556     1 
19549 19557     1 
19549 19558     1 
19550 19553     1 
19550 19554     1 
19550 19555     1 
19551 19553     1 
19551 19554     1 
19551 19555     1 
19552 19559     1 
19552 19560     1 
19552 19561     1 
19553 19556     1 
19553 19557     1 
19553 19558     1 
19554 19556     1 
19554 19557     1 
19554 19558     1 
19555 19562     1 
19555 19563     1 
19555 19564     1 
19556 19559     1 
19556 19560     1 
19556 19561     1 
19557 19559     1 
19557 19560     1 
19557 19561     1 
19559 19562     1 
19559 19563     1 
19559 19564     1 
19560 19562     1 
19560 19563     1 
19560 19564     1 
19565 19582     1 
19565 19583     1 
19565 19587     1 
19566 19570     1 
19566 19571     1 
19566 19572     1 
19566 19574     1 
19566 19575     1 
19566 19576     1 
19566 19578     1 
19566 19579     1 
19566 19580     1 
19566 19584     1 
19567 19569     1 
19567 19573     1 
19567 19577     1 
19567 19582     1 
19567 19583     1 
19567 19587     1 
19568 19569     1 
19568 19573     1 
19568 19577     1 
19568 19582     1 
19568 19583     1 
19568 19587     1 
19569 19574     1 
19569 19575     1 
19569 19576     1 
19569 19578     1 
19569 19579     1 
19569 19580     1 
19569 19581     1 
19570 19573     1 
19570 19577     1 
19571 19573     1 
19571 19577     1 
19572 19573     1 
19572 19577     1 
19573 19578     1 
19573 19579     1 
19573 19580     1 
19573 19581     1 
19574 19577     1 
19575 19577     1 
19576 19577     1 
19577 19581     1 
19581 19585     1 
19581 19586     1 
19581 19588     1 
19582 19584     1 
19583 19584     1 
19584 19590     1 
19584 19591     1 
19584 19592     1 
19585 19589     1 
19586 19589     1 
19587 19589     1 
19588 19593     1 
19588 19594     1 
19588 19600     1 
19589 19595     1 
19589 19601     1 
19589 19602     1 
19589 19603     1 
19590 19593     1 
19590 19594     1 
19590 19600     1 
19591 19593     1 
19591 19594     1 
19591 19600     1 
19592 19596     1 
19592 19597     1 
19592 19604     1 
19593 19595     1 
19593 19601     1 
19593 19602     1 
19593 19603     1 
19594 19598     1 
19594 19599     1 
19594 19601     1 
19594 19602     1 
19594 19603     1 
19594 19609     1 
19595 19600     1 
19595 19610     1 
19595 19611     1 
19595 19612     1 
19596 19598     1 
19596 19599     1 
19596 19609     1 
19597 19613     1 
19597 19614     1 
19597 19615     1 
19598 19610     1 
19598 19611     1 
19598 19612     1 
19599 19610     1 
19599 19611     1 
19599 19612     1 
19600 19605     1 
19600 19606     1 
19601 19604     1 
19602 19604     1 
19603 19607     1 
19603 19608     1 
19603 19656     1 
19604 19657     1 
19604 19658     1 
19604 19659     1 
19605 19607     1 
19605 19608     1 
19605 19656     1 
19606 19660     1 
19606 19661     1 
19606 19662     1 
19607 19657     1 
19607 19658     1 
19607 19659     1 
19608 19657     1 
19608 19658     1 
19608 19659     1 
19609 19616     1 
19609 19617     1 
19609 19618     1 
19610 19613     1 
19610 19614     1 
19610 19615     1 
19611 19613     1 
19611 19614     1 
19611 19615     1 
19612 19619     1 
19612 19620     1 
19612 19621     1 
19613 19616     1 
19613 19617     1 
19613 19618     1 
19614 19616     1 
19614 19617     1 
19614 19618     1 
19615 19622     1 
19615 19623     1 
19615 19624     1 
19616 19619     1 
19616 19620     1 
19616 19621     1 
19617 19619     1 
19617 19620     1 
19617 19621     1 
19618 19625     1 
19618 19626     1 
19618 19627     1 
19619 19622     1 
19619 19623     1 
19619 19624     1 
19620 19622     1 
19620 19623     1 
19620 19624     1 
19621 19628     1 
19621 19629     1 
19622 19625     1 
19622 19626     1 
19622 19627     1 
19623 19625     1 
19623 19626     1 
19623 19627     1 
19624 19630     1 
19624 19631     1 
19625 19628     1 
19625 19629     1 
19626 19628     1 
19626 19629     1 
19627 19632     1 
19627 19633     1 
19627 19634     1 
19628 19630     1 
19628 19631     1 
19629 19635     1 
19629 19636     1 
19629 19637     1 
19630 19632     1 
19630 19633     1 
19630 19634     1 
19631 19638     1 
19631 19639     1 
19631 19640     1 
19632 19635     1 
19632 19636     1 
19632 19637     1 
19633 19635     1 
19633 19636     1 
19633 19637     1 
19634 19641     1 
19634 19642     1 
19634 19643     1 
19635 19638     1 
19635 19639     1 
19635 19640     1 
19636 19638     1 
19636 19639     1 
19636 19640     1 
19637 19644     1 
19637 19645     1 
19637 19646     1 
19638 19641     1 
19638 19642     1 
19638 19643     1 
19639 19641     1 
19639 19642     1 
19639 19643     1 
19640 19647     1 
19640 19648     1 
19640 19649     1 
19641 19644     1 
19641 19645     1 
19641 19646     1 
19642 19644     1 
19642 19645     1 
19642 19646     1 
19643 19650     1 
19643 19651     1 
19643 19652     1 
19644 19647     1 
19644 19648     1 
19644 19649     1 
19645 19647     1 
19645 19648     1 
19645 19649     1 
19646 19653     1 
19646 19654     1 
19646 19655     1 
19647 19650     1 
19647 19651     1 
19647 19652     1 
19648 19650     1 
19648 19651     1 
19648 19652     1 
19650 19653     1 
19650 19654     1 
19650 19655     1 
19651 19653     1 
19651 19654     1 
19651 19655     1 
19656 19663     1 
19656 19664     1 
19656 19665     1 
19657 19660     1 
19657 19661     1 
19657 19662     1 
19658 19660     1 
19658 19661     1 
19658 19662     1 
19659 19666     1 
19659 19667     1 
19659 19668     1 
19660 19663     1 
19660 19664     1 
19660 19665     1 
19661 19663     1 
19661 19664     1 
19661 19665     1 
19662 19669     1 
19662 19670     1 
19662 19671     1 
19663 19666     1 
19663 19667     1 
19663 19668     1 
19664 19666     1 
19664 19667     1 
19664 19668     1 
19665 19672     1 
19665 19673     1 
19665 19674     1 
19666 19669     1 
19666 19670     1 
19666 19671     1 
19667 19669     1 
19667 19670     1 
19667 19671     1 
19668 19675     1 
19668 19676     1 
19668 19677     1 
19669 19672     1 
19669 19673     1 
19669 19674     1 
19670 19672     1 
19670 19673     1 
19670 19674     1 
19671 19678     1 
19671 19679     1 
19671 19680     1 
19672 19675     1 
19672 19676     1 
19672 19677     1 
19673 19675     1 
19673 19676     1 
19673 19677     1 
19674 19681     1 
19674 19682     1 
19674 19683     1 
19675 19678     1 
19675 19679     1 
19675 19680     1 
19676 19678     1 
19676 19679     1 
19676 19680     1 
19677 19684     1 
19677 19685     1 
19677 19686     1 
19678 19681     1 
19678 19682     1 
19678 19683     1 
19679 19681     1 
19679 19682     1 
19679 19683     1 
19680 19687     1 
19680 19688     1 
19680 19689     1 
19681 19684     1 
19681 19685     1 
19681 19686     1 
19682 19684     1 
19682 19685     1 
19682 19686     1 
19683 19690     1 
19683 19691     1 
19683 19692     1 
19684 19687     1 
19684 19688     1 
19684 19689     1 
19685 19687     1 
19685 19688     1 
19685 19689     1 
19686 19693     1 
19686 19694     1 
19686 19695     1 
19687 19690     1 
19687 19691     1 
19687 19692     1 
19688 19690     1 
19688 19691     1 
19688 19692     1 
19689 19696     1 
19689 19697     1 
19689 19698     1 
19690 19693     1 
19690 19694     1 
19690 19695     1 
19691 19693     1 
19691 19694     1 
19691 19695     1 
19693 19696     1 
19693 19697     1 
19693 19698     1 
19694 19696     1 
19694 19697     1 
19694 19698     1 
19699 19716     1 
19699 19717     1 
19699 19721     1 
19700 19704     1 
19700 19705     1 
19700 19706     1 
19700 19708     1 
19700 19709     1 
19700 19710     1 
19700 19712     1 
19700 19713     1 
19700 19714     1 
19700 19718     1 
19701 19703     1 
19701 19707     1 
19701 19711     1 
19701 19716     1 
19701 19717     1 
19701 19721     1 
19702 19703     1 
19702 19707     1 
19702 19711     1 
19702 19716     1 
19702 19717     1 
19702 19721     1 
19703 19708     1 
19703 19709     1 
19703 19710     1 
19703 19712     1 
19703 19713     1 
19703 19714     1 
19703 19715     1 
19704 19707     1 
19704 19711     1 
19705 19707     1 
19705 19711     1 
19706 19707     1 
19706 19711     1 
19707 19712     1 
19707 19713     1 
19707 19714     1 
19707 19715     1 
19708 19711     1 
19709 19711     1 
19710 19711     1 
19711 19715     1 
19715 19719     1 
19715 19720     1 
19715 19722     1 
19716 19718     1 
19717 19718     1 
19718 19724     1 
19718 19725     1 
19718 19726     1 
19719 19723     1 
19720 19723     1 
19721 19723     1 
19722 19727     1 
19722 19728     1 
19722 19734     1 
19723 19729     1 
19723 19735     1 
19723 19736     1 
19723 19737     1 
19724 19727     1 
19724 19728     1 
19724 19734     1 
19725 19727     1 
19725 19728     1 
19725 19734     1 
19726 19730     1 
19726 19731     1 
19726 19738     1 
19727 19729     1 
19727 19735     1 
19727 19736     1 
19727 19737     1 
19728 19732     1 
19728 19733     1 
19728 19735     1 
19728 19736     1 
19728 19737     1 
19728 19743     1 
19729 19734     1 
19729 19744     1 
19729 19745     1 
19729 19746     1 
19730 19732     1 
19730 19733     1 
19730 19743     1 
19731 19747     1 
19731 19748     1 
19731 19749     1 
19732 19744     1 
19732 19745     1 
19732 19746     1 
19733 19744     1 
19733 19745     1 
19733 19746     1 
19734 19739     1 
19734 19740     1 
19735 19738     1 
19736 19738     1 
19737 19741     1 
19737 19742     1 
19737 19790     1 
19738 19791     1 
19738 19792     1 
19738 19793     1 
19739 19741     1 
19739 19742     1 
19739 19790     1 
19740 19794     1 
19740 19795     1 
19740 19796     1 
19741 19791     1 
19741 19792     1 
19741 19793     1 
19742 19791     1 
19742 19792     1 
19742 19793     1 
19743 19750     1 
19743 19751     1 
19743 19752     1 
19744 19747     1 
19744 19748     1 
19744 19749     1 
19745 19747     1 
19745 19748     1 
19745 19749     1 
19746 19753     1 
19746 19754     1 
19746 19755     1 
19747 19750     1 
19747 19751     1 
19747 19752     1 
19748 19750     1 
19748 19751     1 
19748 19752     1 
19749 19756     1 
19749 19757     1 
19749 19758     1 
19750 19753     1 
19750 19754     1 
19750 19755     1 
19751 19753     1 
19751 19754     1 
19751 19755     1 
19752 19759     1 
19752 19760     1 
19752 19761     1 
19753 19756     1 
19753 19757     1 
19753 19758     1 
19754 19756     1 
19754 19757     1 
19754 19758     1 
19755 19762     1 
19755 19763     1 
19756 19759     1 
19756 19760     1 
19756 19761     1 
19757 19759     1 
19757 19760     1 
19757 19761     1 
19758 19764     1 
19758 19765     1 
19759 19762     1 
19759 19763     1 
19760 19762     1 
19760 19763     1 
19761 19766     1 
19761 19767     1 
19761 19768     1 
19762 19764     1 
19762 19765     1 
19763 19769     1 
19763 19770     1 
19763 19771     1 
19764 19766     1 
19764 19767     1 
19764 19768     1 
19765 19772     1 
19765 19773     1 
19765 19774     1 
19766 19769     1 
19766 19770     1 
19766 19771     1 
19767 19769     1 
19767 19770     1 
19767 19771     1 
19768 19775     1 
19768 19776     1 
19768 19777     1 
19769 19772     1 
19769 19773     1 
19769 19774     1 
19770 19772     1 
19770 19773     1 
19770 19774     1 
19771 19778     1 
19771 19779     1 
19771 19780     1 
19772 19775     1 
19772 19776     1 
19772 19777     1 
19773 19775     1 
19773 19776     1 
19773 19777     1 
19774 19781     1 
19774 19782     1 
19774 19783     1 
19775 19778     1 
19775 19779     1 
19775 19780     1 
19776 19778     1 
19776 19779     1 
19776 19780     1 
19777 19784     1 
19777 19785     1 
19777 19786     1 
19778 19781     1 
19778 19782     1 
19778 19783     1 
19779 19781     1 
19779 19782     1 
19779 19783     1 
19780 19787     1 
19780 19788     1 
19780 19789     1 
19781 19784     1 
19781 19785     1 
19781 19786     1 
19782 19784     1 
19782 19785     1 
19782 19786     1 
19784 19787     1 
19784 19788     1 
19784 19789     1 
19785 19787     1 
19785 19788     1 
19785 19789     1 
19790 19797     1 
19790 19798     1 
19790 19799     1 
19791 19794     1 
19791 19795     1 
19791 19796     1 
19792 19794     1 
19792 19795     1 
19792 19796     1 
19793 19800     1 
19793 19801     1 
19793 19802     1 
19794 19797     1 
19794 19798     1 
19794 19799     1 
19795 19797     1 
19795 19798     1 
19795 19799     1 
19796 19803     1 
19796 19804     1 
19796 19805     1 
19797 19800     1 
19797 19801     1 
19797 19802     1 
19798 19800     1 
19798 19801     1 
19798 19802     1 
19799 19806     1 
19799 19807     1 
19799 19808     1 
19800 19803     1 
19800 19804     1 
19800 19805     1 
19801 19803     1 
19801 19804     1 
19801 19805     1 
19802 19809     1 
19802 19810     1 
19802 19811     1 
19803 19806     1 
19803 19807     1 
19803 19808     1 
19804 19806     1 
19804 19807     1 
19804 19808     1 
19805 19812     1 
19805 19813     1 
19805 19814     1 
19806 19809     1 
19806 19810     1 
19806 19811     1 
19807 19809     1 
19807 19810     1 
19807 19811     1 
19808 19815     1 
19808 19816     1 
19808 19817     1 
19809 19812     1 
19809 19813     1 
19809 19814     1 
19810 19812     1 
19810 19813     1 
19810 19814     1 
19811 19818     1 
19811 19819     1 
19811 19820     1 
19812 19815     1 
19812 19816     1 
19812 19817     1 
19813 19815     1 
19813 19816     1 
19813 19817     1 
19814 19821     1 
19814 19822     1 
19814 19823     1 
19815 19818     1 
19815 19819     1 
19815 19820     1 
19816 19818     1 
19816 19819     1 
19816 19820     1 
19817 19824     1 
19817 19825     1 
19817 19826     1 
19818 19821     1 
19818 19822     1 
19818 19823     1 
19819 19821     1 
19819 19822     1 
19819 19823     1 
19820 19827     1 
19820 19828     1 
19820 19829     1 
19821 19824     1 
19821 19825     1 
19821 19826     1 
19822 19824     1 
19822 19825     1 
19822 19826     1 
19823 19830     1 
19823 19831     1 
19823 19832     1 
19824 19827     1 
19824 19828     1 
19824 19829     1 
19825 19827     1 
19825 19828     1 
19825 19829     1 
19827 19830     1 
19827 19831     1 
19827 19832     1 
19828 19830     1 
19828 19831     1 
19828 19832     1 
19833 19850     1 
19833 19851     1 
19833 19855     1 
19834 19838     1 
19834 19839     1 
19834 19840     1 
19834 19842     1 
19834 19843     1 
19834 19844     1 
19834 19846     1 
19834 19847     1 
19834 19848     1 
19834 19852     1 
19835 19837     1 
19835 19841     1 
19835 19845     1 
19835 19850     1 
19835 19851     1 
19835 19855     1 
19836 19837     1 
19836 19841     1 
19836 19845     1 
19836 19850     1 
19836 19851     1 
19836 19855     1 
19837 19842     1 
19837 19843     1 
19837 19844     1 
19837 19846     1 
19837 19847     1 
19837 19848     1 
19837 19849     1 
19838 19841     1 
19838 19845     1 
19839 19841     1 
19839 19845     1 
19840 19841     1 
19840 19845     1 
19841 19846     1 
19841 19847     1 
19841 19848     1 
19841 19849     1 
19842 19845     1 
19843 19845     1 
19844 19845     1 
19845 19849     1 
19849 19853     1 
19849 19854     1 
19849 19856     1 
19850 19852     1 
19851 19852     1 
19852 19858     1 
19852 19859     1 
19852 19860     1 
19853 19857     1 
19854 19857     1 
19855 19857     1 
19856 19861     1 
19856 19862     1 
19856 19868     1 
19857 19863     1 
19857 19869     1 
19857 19870     1 
19857 19871     1 
19858 19861     1 
19858 19862     1 
19858 19868     1 
19859 19861     1 
19859 19862     1 
19859 19868     1 
19860 19864     1 
19860 19865     1 
19860 19872     1 
19861 19863     1 
19861 19869     1 
19861 19870     1 
19861 19871     1 
19862 19866     1 
19862 19867     1 
19862 19869     1 
19862 19870     1 
19862 19871     1 
19862 19877     1 
19863 19868     1 
19863 19878     1 
19863 19879     1 
19863 19880     1 
19864 19866     1 
19864 19867     1 
19864 19877     1 
19865 19881     1 
19865 19882     1 
19865 19883     1 
19866 19878     1 
19866 19879     1 
19866 19880     1 
19867 19878     1 
19867 19879     1 
19867 19880     1 
19868 19873     1 
19868 19874     1 
19869 19872     1 
19870 19872     1 
19871 19875     1 
19871 19876     1 
19871 19924     1 
19872 19925     1 
19872 19926     1 
19872 19927     1 
19873 19875     1 
19873 19876     1 
19873 19924     1 
19874 19928     1 
19874 19929     1 
19874 19930     1 
19875 19925     1 
19875 19926     1 
19875 19927     1 
19876 19925     1 
19876 19926     1 
19876 19927     1 
19877 19884     1 
19877 19885     1 
19877 19886     1 
19878 19881     1 
19878 19882     1 
19878 19883     1 
19879 19881     1 
19879 19882     1 
19879 19883     1 
19880 19887     1 
19880 19888     1 
19880 19889     1 
19881 19884     1 
19881 19885     1 
19881 19886     1 
19882 19884     1 
19882 19885     1 
19882 19886     1 
19883 19890     1 
19883 19891     1 
19883 19892     1 
19884 19887     1 
19884 19888     1 
19884 19889     1 
19885 19887     1 
19885 19888     1 
19885 19889     1 
19886 19893     1 
19886 19894     1 
19886 19895     1 
19887 19890     1 
19887 19891     1 
19887 19892     1 
19888 19890     1 
19888 19891     1 
19888 19892     1 
19889 19896     1 
19889 19897     1 
19890 19893     1 
19890 19894     1 
19890 19895     1 
19891 19893     1 
19891 19894     1 
19891 19895     1 
19892 19898     1 
19892 19899     1 
19893 19896     1 
19893 19897     1 
19894 19896     1 
19894 19897     1 
19895 19900     1 
19895 19901     1 
19895 19902     1 
19896 19898     1 
19896 19899     1 
19897 19903     1 
19897 19904     1 
19897 19905     1 
19898 19900     1 
19898 19901     1 
19898 19902     1 
19899 19906     1 
19899 19907     1 
19899 19908     1 
19900 19903     1 
19900 19904     1 
19900 19905     1 
19901 19903     1 
19901 19904     1 
19901 19905     1 
19902 19909     1 
19902 19910     1 
19902 19911     1 
19903 19906     1 
19903 19907     1 
19903 19908     1 
19904 19906     1 
19904 19907     1 
19904 19908     1 
19905 19912     1 
19905 19913     1 
19905 19914     1 
19906 19909     1 
19906 19910     1 
19906 19911     1 
19907 19909     1 
19907 19910     1 
19907 19911     1 
19908 19915     1 
19908 19916     1 
19908 19917     1 
19909 19912     1 
19909 19913     1 
19909 19914     1 
19910 19912     1 
19910 19913     1 
19910 19914     1 
19911 19918     1 
19911 19919     1 
19911 19920     1 
19912 19915     1 
19912 19916     1 
19912 19917     1 
19913 19915     1 
19913 19916     1 
19913 19917     1 
19914 19921     1 
19914 19922     1 
19914 19923     1 
19915 19918     1 
19915 19919     1 
19915 19920     1 
19916 19918     1 
19916 19919     1 
19916 19920     1 
19918 19921     1 
19918 19922     1 
19918 19923     1 
19919 19921     1 
19919 19922     1 
19919 19923     1 
19924 19931     1 
19924 19932     1 
19924 19933     1 
19925 19928     1 
19925 19929     1 
19925 19930     1 
19926 19928     1 
19926 19929     1 
19926 19930     1 
19927 19934     1 
19927 19935     1 
19927 19936     1 
19928 19931     1 
19928 19932     1 
19928 19933     1 
19929 19931     1 
19929 19932     1 
19929 19933     1 
19930 19937     1 
19930 19938     1 
19930 19939     1 
19931 19934     1 
19931 19935     1 
19931 19936     1 
19932 19934     1 
19932 19935     1 
19932 19936     1 
19933 19940     1 
19933 19941     1 
19933 19942     1 
19934 19937     1 
19934 19938     1 
19934 19939     1 
19935 19937     1 
19935 19938     1 
19935 19939     1 
19936 19943     1 
19936 19944     1 
19936 19945     1 
19937 19940     1 
19937 19941     1 
19937 19942     1 
19938 19940     1 
19938 19941     1 
19938 19942     1 
19939 19946     1 
19939 19947     1 
19939 19948     1 
19940 19943     1 
19940 19944     1 
19940 19945     1 
19941 19943     1 
19941 19944     1 
19941 19945     1 
19942 19949     1 
19942 19950     1 
19942 19951     1 
19943 19946     1 
19943 19947     1 
19943 19948     1 
19944 19946     1 
19944 19947     1 
19944 19948     1 
19945 19952     1 
19945 19953     1 
19945 19954     1 
19946 19949     1 
19946 19950     1 
19946 19951     1 
19947 19949     1 
19947 19950     1 
19947 19951     1 
19948 19955     1 
19948 19956     1 
19948 19957     1 
19949 19952     1 
19949 19953     1 
19949 19954     1 
19950 19952     1 
19950 19953     1 
19950 19954     1 
19951 19958     1 
19951 19959     1 
19951 19960     1 
19952 19955     1 
19952 19956     1 
19952 19957     1 
19953 19955     1 
19953 19956     1 
19953 19957     1 
19954 19961     1 
19954 19962     1 
19954 19963     1 
19955 19958     1 
19955 19959     1 
19955 19960     1 
19956 19958     1 
19956 19959     1 
19956 19960     1 
19957 19964     1 
19957 19965     1 
19957 19966     1 
19958 19961     1 
19958 19962     1 
19958 19963     1 
19959 19961     1 
19959 19962     1 
19959 19963     1 
19961 19964     1 
19961 19965     1 
19961 19966     1 
19962 19964     1 
19962 19965     1 
19962 19966     1 
19967 19984     1 
19967 19985     1 
19967 19989     1 
19968 19972     1 
19968 19973     1 
19968 19974     1 
19968 19976     1 
19968 19977     1 
19968 19978     1 
19968 19980     1 
19968 19981     1 
19968 19982     1 
19968 19986     1 
19969 19971     1 
19969 19975     1 
19969 19979     1 
19969 19984     1 
19969 19985     1 
19969 19989     1 
19970 19971     1 
19970 19975     1 
19970 19979     1 
19970 19984     1 
19970 19985     1 
19970 19989     1 
19971 19976     1 
19971 19977     1 
19971 19978     1 
19971 19980     1 
19971 19981     1 
19971 19982     1 
19971 19983     1 
19972 19975     1 
19972 19979     1 
19973 19975     1 
19973 19979     1 
19974 19975     1 
19974 19979     1 
19975 19980     1 
19975 19981     1 
19975 19982     1 
19975 19983     1 
19976 19979     1 
19977 19979     1 
19978 19979     1 
19979 19983     1 
19983 19987     1 
19983 19988     1 
19983 19990     1 
19984 19986     1 
19985 19986     1 
19986 19992     1 
19986 19993     1 
19986 19994     1 
19987 19991     1 
19988 19991     1 
19989 19991     1 
19990 19995     1 
19990 19996     1 
19990 20002     1 
19991 19997     1 
19991 20003     1 
19991 20004     1 
19991 20005     1 
19992 19995     1 
19992 19996     1 
19992 20002     1 
19993 19995     1 
19993 19996     1 
19993 20002     1 
19994 19998     1 
19994 19999     1 
19994 20006     1 
19995 19997     1 
19995 20003     1 
19995 20004     1 
19995 20005     1 
19996 20000     1 
19996 20001     1 
19996 20003     1 
19996 20004     1 
19996 20005     1 
19996 20011     1 
19997 20002     1 
19997 20012     1 
19997 20013     1 
19997 20014     1 
19998 20000     1 
19998 20001     1 
19998 20011     1 
19999 20015     1 
19999 20016     1 
19999 20017     1 
20000 20012     1 
20000 20013     1 
20000 20014     1 
20001 20012     1 
20001 20013     1 
20001 20014     1 
20002 20007     1 
20002 20008     1 
20003 20006     1 
20004 20006     1 
20005 20009     1 
20005 20010     1 
20005 20058     1 
20006 20059     1 
20006 20060     1 
20006 20061     1 
20007 20009     1 
20007 20010     1 
20007 20058     1 
20008 20062     1 
20008 20063     1 
20008 20064     1 
20009 20059     1 
20009 20060     1 
20009 20061     1 
20010 20059     1 
20010 20060     1 
20010 20061     1 
20011 20018     1 
20011 20019     1 
20011 20020     1 
20012 20015     1 
20012 20016     1 
20012 20017     1 
20013 20015     1 
20013 20016     1 
20013 20017     1 
20014 20021     1 
20014 20022     1 
20014 20023     1 
20015 20018     1 
20015 20019     1 
20015 20020     1 
20016 20018     1 
20016 20019     1 
20016 20020     1 
20017 20024     1 
20017 20025     1 
20017 20026     1 
20018 20021     1 
20018 20022     1 
20018 20023     1 
20019 20021     1 
20019 20022     1 
20019 20023     1 
20020 20027     1 
20020 20028     1 
20020 20029     1 
20021 20024     1 
20021 20025     1 
20021 20026     1 
20022 20024     1 
20022 20025     1 
20022 20026     1 
20023 20030     1 
20023 20031     1 
20024 20027     1 
20024 20028     1 
20024 20029     1 
20025 20027     1 
20025 20028     1 
20025 20029     1 
20026 20032     1 
20026 20033     1 
20027 20030     1 
20027 20031     1 
20028 20030     1 
20028 20031     1 
20029 20034     1 
20029 20035     1 
20029 20036     1 
20030 20032     1 
20030 20033     1 
20031 20037     1 
20031 20038     1 
20031 20039     1 
20032 20034     1 
20032 20035     1 
20032 20036     1 
20033 20040     1 
20033 20041     1 
20033 20042     1 
20034 20037     1 
20034 20038     1 
20034 20039     1 
20035 20037     1 
20035 20038     1 
20035 20039     1 
20036 20043     1 
20036 20044     1 
20036 20045     1 
20037 20040     1 
20037 20041     1 
20037 20042     1 
20038 20040     1 
20038 20041     1 
20038 20042     1 
20039 20046     1 
20039 20047     1 
20039 20048     1 
20040 20043     1 
20040 20044     1 
20040 20045     1 
20041 20043     1 
20041 20044     1 
20041 20045     1 
20042 20049     1 
20042 20050     1 
20042 20051     1 
20043 20046     1 
20043 20047     1 
20043 20048     1 
20044 20046     1 
20044 20047     1 
20044 20048     1 
20045 20052     1 
20045 20053     1 
20045 20054     1 
20046 20049     1 
20046 20050     1 
20046 20051     1 
20047 20049     1 
20047 20050     1 
20047 20051     1 
20048 20055     1 
20048 20056     1 
20048 20057     1 
20049 20052     1 
20049 20053     1 
20049 20054     1 
20050 20052     1 
20050 20053     1 
20050 20054     1 
20052 20055     1 
20052 20056     1 
20052 20057     1 
20053 20055     1 
20053 20056     1 
20053 20057     1 
20058 20065     1 
20058 20066     1 
20058 20067     1 
20059 20062     1 
20059 20063     1 
20059 20064     1 
20060 20062     1 
20060 20063     1 
20060 20064     1 
20061 20068     1 
20061 20069     1 
20061 20070     1 
20062 20065     1 
20062 20066     1 
20062 20067     1 
20063 20065     1 
20063 20066     1 
20063 20067     1 
20064 20071     1 
20064 20072     1 
20064 20073     1 
20065 20068     1 
20065 20069     1 
20065 20070     1 
20066 20068     1 
20066 20069     1 
20066 20070     1 
20067 20074     1 
20067 20075     1 
20067 20076     1 
20068 20071     1 
20068 20072     1 
20068 20073     1 
20069 20071     1 
20069 20072     1 
20069 20073     1 
20070 20077     1 
20070 20078     1 
20070 20079     1 
20071 20074     1 
20071 20075     1 
20071 20076     1 
20072 20074     1 
20072 20075     1 
20072 20076     1 
20073 20080     1 
20073 20081     1 
20073 20082     1 
20074 20077     1 
20074 20078     1 
20074 20079     1 
20075 20077     1 
20075 20078     1 
20075 20079     1 
20076 20083     1 
20076 20084     1 
20076 20085     1 
20077 20080     1 
20077 20081     1 
20077 20082     1 
20078 20080     1 
20078 20081     1 
20078 20082     1 
20079 20086     1 
20079 20087     1 
20079 20088     1 
20080 20083     1 
20080 20084     1 
20080 20085     1 
20081 20083     1 
20081 20084     1 
20081 20085     1 
20082 20089     1 
20082 20090     1 
20082 20091     1 
20083 20086     1 
20083 20087     1 
20083 20088     1 
20084 20086     1 
20084 20087     1 
20084 20088     1 
20085 20092     1 
20085 20093     1 
20085 20094     1 
20086 20089     1 
20086 20090     1 
20086 20091     1 
20087 20089     1 
20087 20090     1 
20087 20091     1 
20088 20095     1 
20088 20096     1 
20088 20097     1 
20089 20092     1 
20089 20093     1 
20089 20094     1 
20090 20092     1 
20090 20093     1 
20090 20094     1 
20091 20098     1 
20091 20099     1 
20091 20100     1 
20092 20095     1 
20092 20096     1 
20092 20097     1 
20093 20095     1 
20093 20096     1 
20093 20097     1 
20095 20098     1 
20095 20099     1 
20095 20100     1 
20096 20098     1 
20096 20099     1 
20096 20100     1 
20101 20118     1 
20101 20119     1 
20101 20123     1 
20102 20106     1 
20102 20107     1 
20102 20108     1 
20102 20110     1 
20102 20111     1 
20102 20112     1 
20102 20114     1 
20102 20115     1 
20102 20116     1 
20102 20120     1 
20103 20105     1 
20103 20109     1 
20103 20113     1 
20103 20118     1 
20103 20119     1 
20103 20123     1 
20104 20105     1 
20104 20109     1 
20104 20113     1 
20104 20118     1 
20104 20119     1 
20104 20123     1 
20105 20110     1 
20105 20111     1 
20105 20112     1 
20105 20114     1 
20105 20115     1 
20105 20116     1 
20105 20117     1 
20106 20109     1 
20106 20113     1 
20107 20109     1 
20107 20113     1 
20108 20109     1 
20108 20113     1 
20109 20114     1 
20109 20115     1 
20109 20116     1 
20109 20117     1 
20110 20113     1 
20111 20113     1 
20112 20113     1 
20113 20117     1 
20117 20121     1 
20117 20122     1 
20117 20124     1 
20118 20120     1 
20119 20120     1 
20120 20126     1 
20120 20127     1 
20120 20128     1 
20121 20125     1 
20122 20125     1 
20123 20125     1 
20124 20129     1 
20124 20130     1 
20124 20136     1 
20125 20131     1 
20125 20137     1 
20125 20138     1 
20125 20139     1 
20126 20129     1 
20126 20130     1 
20126 20136     1 
20127 20129     1 
20127 20130     1 
20127 20136     1 
20128 20132     1 
20128 20133     1 
20128 20140     1 
20129 20131     1 
20129 20137     1 
20129 20138     1 
20129 20139     1 
20130 20134     1 
20130 20135     1 
20130 20137     1 
20130 20138     1 
20130 20139     1 
20130 20145     1 
20131 20136     1 
20131 20146     1 
20131 20147     1 
20131 20148     1 
20132 20134     1 
20132 20135     1 
20132 20145     1 
20133 20149     1 
20133 20150     1 
20133 20151     1 
20134 20146     1 
20134 20147     1 
20134 20148     1 
20135 20146     1 
20135 20147     1 
20135 20148     1 
20136 20141     1 
20136 20142     1 
20137 20140     1 
20138 20140     1 
20139 20143     1 
20139 20144     1 
20139 20192     1 
20140 20193     1 
20140 20194     1 
20140 20195     1 
20141 20143     1 
20141 20144     1 
20141 20192     1 
20142 20196     1 
20142 20197     1 
20142 20198     1 
20143 20193     1 
20143 20194     1 
20143 20195     1 
20144 20193     1 
20144 20194     1 
20144 20195     1 
20145 20152     1 
20145 20153     1 
20145 20154     1 
20146 20149     1 
20146 20150     1 
20146 20151     1 
20147 20149     1 
20147 20150     1 
20147 20151     1 
20148 20155     1 
20148 20156     1 
20148 20157     1 
20149 20152     1 
20149 20153     1 
20149 20154     1 
20150 20152     1 
20150 20153     1 
20150 20154     1 
20151 20158     1 
20151 20159     1 
20151 20160     1 
20152 20155     1 
20152 20156     1 
20152 20157     1 
20153 20155     1 
20153 20156     1 
20153 20157     1 
20154 20161     1 
20154 20162     1 
20154 20163     1 
20155 20158     1 
20155 20159     1 
20155 20160     1 
20156 20158     1 
20156 20159     1 
20156 20160     1 
20157 20164     1 
20157 20165     1 
20158 20161     1 
20158 20162     1 
20158 20163     1 
20159 20161     1 
20159 20162     1 
20159 20163     1 
20160 20166     1 
20160 20167     1 
20161 20164     1 
20161 20165     1 
20162 20164     1 
20162 20165     1 
20163 20168     1 
20163 20169     1 
20163 20170     1 
20164 20166     1 
20164 20167     1 
20165 20171     1 
20165 20172     1 
20165 20173     1 
20166 20168     1 
20166 20169     1 
20166 20170     1 
20167 20174     1 
20167 20175     1 
20167 20176     1 
20168 20171     1 
20168 20172     1 
20168 20173     1 
20169 20171     1 
20169 20172     1 
20169 20173     1 
20170 20177     1 
20170 20178     1 
20170 20179     1 
20171 20174     1 
20171 20175     1 
20171 20176     1 
20172 20174     1 
20172 20175     1 
20172 20176     1 
20173 20180     1 
20173 20181     1 
20173 20182     1 
20174 20177     1 
20174 20178     1 
20174 20179     1 
20175 20177     1 
20175 20178     1 
20175 20179     1 
20176 20183     1 
20176 20184     1 
20176 20185     1 
20177 20180     1 
20177 20181     1 
20177 20182     1 
20178 20180     1 
20178 20181     1 
20178 20182     1 
20179 20186     1 
20179 20187     1 
20179 20188     1 
20180 20183     1 
20180 20184     1 
20180 20185     1 
20181 20183     1 
20181 20184     1 
20181 20185     1 
20182 20189     1 
20182 20190     1 
20182 20191     1 
20183 20186     1 
20183 20187     1 
20183 20188     1 
20184 20186     1 
20184 20187     1 
20184 20188     1 
20186 20189     1 
20186 20190     1 
20186 20191     1 
20187 20189     1 
20187 20190     1 
20187 20191     1 
20192 20199     1 
20192 20200     1 
20192 20201     1 
20193 20196     1 
20193 20197     1 
20193 20198     1 
20194 20196     1 
20194 20197     1 
20194 20198     1 
20195 20202     1 
20195 20203     1 
20195 20204     1 
20196 20199     1 
20196 20200     1 
20196 20201     1 
20197 20199     1 
20197 20200     1 
20197 20201     1 
20198 20205     1 
20198 20206     1 
20198 20207     1 
20199 20202     1 
20199 20203     1 
20199 20204     1 
20200 20202     1 
20200 20203     1 
20200 20204     1 
20201 20208     1 
20201 20209     1 
20201 20210     1 
20202 20205     1 
20202 20206     1 
20202 20207     1 
20203 20205     1 
20203 20206     1 
20203 20207     1 
20204 20211     1 
20204 20212     1 
20204 20213     1 
20205 20208     1 
20205 20209     1 
20205 20210     1 
20206 20208     1 
20206 20209     1 
20206 20210     1 
20207 20214     1 
20207 20215     1 
20207 20216     1 
20208 20211     1 
20208 20212     1 
20208 20213     1 
20209 20211     1 
20209 20212     1 
20209 20213     1 
20210 20217     1 
20210 20218     1 
20210 20219     1 
20211 20214     1 
20211 20215     1 
20211 20216     1 
20212 20214     1 
20212 20215     1 
20212 20216     1 
20213 20220     1 
20213 20221     1 
20213 20222     1 
20214 20217     1 
20214 20218     1 
20214 20219     1 
20215 20217     1 
20215 20218     1 
20215 20219     1 
20216 20223     1 
20216 20224     1 
20216 20225     1 
20217 20220     1 
20217 20221     1 
20217 20222     1 
20218 20220     1 
20218 20221     1 
20218 20222     1 
20219 20226     1 
20219 20227     1 
20219 20228     1 
20220 20223     1 
20220 20224     1 
20220 20225     1 
20221 20223     1 
20221 20224     1 
20221 20225     1 
20222 20229     1 
20222 20230     1 
20222 20231     1 
20223 20226     1 
20223 20227     1 
20223 20228     1 
20224 20226     1 
20224 20227     1 
20224 20228     1 
20225 20232     1 
20225 20233     1 
20225 20234     1 
20226 20229     1 
20226 20230     1 
20226 20231     1 
20227 20229     1 
20227 20230     1 
20227 20231     1 
20229 20232     1 
20229 20233     1 
20229 20234     1 
20230 20232     1 
20230 20233     1 
20230 20234     1 
20235 20252     1 
20235 20253     1 
20235 20257     1 
20236 20240     1 
20236 20241     1 
20236 20242     1 
20236 20244     1 
20236 20245     1 
20236 20246     1 
20236 20248     1 
20236 20249     1 
20236 20250     1 
20236 20254     1 
20237 20239     1 
20237 20243     1 
20237 20247     1 
20237 20252     1 
20237 20253     1 
20237 20257     1 
20238 20239     1 
20238 20243     1 
20238 20247     1 
20238 20252     1 
20238 20253     1 
20238 20257     1 
20239 20244     1 
20239 20245     1 
20239 20246     1 
20239 20248     1 
20239 20249     1 
20239 20250     1 
20239 20251     1 
20240 20243     1 
20240 20247     1 
20241 20243     1 
20241 20247     1 
20242 20243     1 
20242 20247     1 
20243 20248     1 
20243 20249     1 
20243 20250     1 
20243 20251     1 
20244 20247     1 
20245 20247     1 
20246 20247     1 
20247 20251     1 
20251 20255     1 
20251 20256     1 
20251 20258     1 
20252 20254     1 
20253 20254     1 
20254 20260     1 
20254 20261     1 
20254 20262     1 
20255 20259     1 
20256 20259     1 
20257 20259     1 
20258 20263     1 
20258 20264     1 
20258 20270     1 
20259 20265     1 
20259 20271     1 
20259 20272     1 
20259 20273     1 
20260 20263     1 
20260 20264     1 
20260 20270     1 
20261 20263     1 
20261 20264     1 
20261 20270     1 
20262 20266     1 
20262 20267     1 
20262 20274     1 
20263 20265     1 
20263 20271     1 
20263 20272     1 
20263 20273     1 
20264 20268     1 
20264 20269     1 
20264 20271     1 
20264 20272     1 
20264 20273     1 
20264 20279     1 
20265 20270     1 
20265 20280     1 
20265 20281     1 
20265 20282     1 
20266 20268     1 
20266 20269     1 
20266 20279     1 
20267 20283     1 
20267 20284     1 
20267 20285     1 
20268 20280     1 
20268 20281     1 
20268 20282     1 
20269 20280     1 
20269 20281     1 
20269 20282     1 
20270 20275     1 
20270 20276     1 
20271 20274     1 
20272 20274     1 
20273 20277     1 
20273 20278     1 
20273 20326     1 
20274 20327     1 
20274 20328     1 
20274 20329     1 
20275 20277     1 
20275 20278     1 
20275 20326     1 
20276 20330     1 
20276 20331     1 
20276 20332     1 
20277 20327     1 
20277 20328     1 
20277 20329     1 
20278 20327     1 
20278 20328     1 
20278 20329     1 
20279 20286     1 
20279 20287     1 
20279 20288     1 
20280 20283     1 
20280 20284     1 
20280 20285     1 
20281 20283     1 
20281 20284     1 
20281 20285     1 
20282 20289     1 
20282 20290     1 
20282 20291     1 
20283 20286     1 
20283 20287     1 
20283 20288     1 
20284 20286     1 
20284 20287     1 
20284 20288     1 
20285 20292     1 
20285 20293     1 
20285 20294     1 
20286 20289     1 
20286 20290     1 
20286 20291     1 
20287 20289     1 
20287 20290     1 
20287 20291     1 
20288 20295     1 
20288 20296     1 
20288 20297     1 
20289 20292     1 
20289 20293     1 
20289 20294     1 
20290 20292     1 
20290 20293     1 
20290 20294     1 
20291 20298     1 
20291 20299     1 
20292 20295     1 
20292 20296     1 
20292 20297     1 
20293 20295     1 
20293 20296     1 
20293 20297     1 
20294 20300     1 
20294 20301     1 
20295 20298     1 
20295 20299     1 
20296 20298     1 
20296 20299     1 
20297 20302     1 
20297 20303     1 
20297 20304     1 
20298 20300     1 
20298 20301     1 
20299 20305     1 
20299 20306     1 
20299 20307     1 
20300 20302     1 
20300 20303     1 
20300 20304     1 
20301 20308     1 
20301 20309     1 
20301 20310     1 
20302 20305     1 
20302 20306     1 
20302 20307     1 
20303 20305     1 
20303 20306     1 
20303 20307     1 
20304 20311     1 
20304 20312     1 
20304 20313     1 
20305 20308     1 
20305 20309     1 
20305 20310     1 
20306 20308     1 
20306 20309     1 
20306 20310     1 
20307 20314     1 
20307 20315     1 
20307 20316     1 
20308 20311     1 
20308 20312     1 
20308 20313     1 
20309 20311     1 
20309 20312     1 
20309 20313     1 
20310 20317     1 
20310 20318     1 
20310 20319     1 
20311 20314     1 
20311 20315     1 
20311 20316     1 
20312 20314     1 
20312 20315     1 
20312 20316     1 
20313 20320     1 
20313 20321     1 
20313 20322     1 
20314 20317     1 
20314 20318     1 
20314 20319     1 
20315 20317     1 
20315 20318     1 
20315 20319     1 
20316 20323     1 
20316 20324     1 
20316 20325     1 
20317 20320     1 
20317 20321     1 
20317 20322     1 
20318 20320     1 
20318 20321     1 
20318 20322     1 
20320 20323     1 
20320 20324     1 
20320 20325     1 
20321 20323     1 
20321 20324     1 
20321 20325     1 
20326 20333     1 
20326 20334     1 
20326 20335     1 
20327 20330     1 
20327 20331     1 
20327 20332     1 
20328 20330     1 
20328 20331     1 
20328 20332     1 
20329 20336     1 
20329 20337     1 
20329 20338     1 
20330 20333     1 
20330 20334     1 
20330 20335     1 
20331 20333     1 
20331 20334     1 
20331 20335     1 
20332 20339     1 
20332 20340     1 
20332 20341     1 
20333 20336     1 
20333 20337     1 
20333 20338     1 
20334 20336     1 
20334 20337     1 
20334 20338     1 
20335 20342     1 
20335 20343     1 
20335 20344     1 
20336 20339     1 
20336 20340     1 
20336 20341     1 
20337 20339     1 
20337 20340     1 
20337 20341     1 
20338 20345     1 
20338 20346     1 
20338 20347     1 
20339 20342     1 
20339 20343     1 
20339 20344     1 
20340 20342     1 
20340 20343     1 
20340 20344     1 
20341 20348     1 
20341 20349     1 
20341 20350     1 
20342 20345     1 
20342 20346     1 
20342 20347     1 
20343 20345     1 
20343 20346     1 
20343 20347     1 
20344 20351     1 
20344 20352     1 
20344 20353     1 
20345 20348     1 
20345 20349     1 
20345 20350     1 
20346 20348     1 
20346 20349     1 
20346 20350     1 
20347 20354     1 
20347 20355     1 
20347 20356     1 
20348 20351     1 
20348 20352     1 
20348 20353     1 
20349 20351     1 
20349 20352     1 
20349 20353     1 
20350 20357     1 
20350 20358     1 
20350 20359     1 
20351 20354     1 
20351 20355     1 
20351 20356     1 
20352 20354     1 
20352 20355     1 
20352 20356     1 
20353 20360     1 
20353 20361     1 
20353 20362     1 
20354 20357     1 
20354 20358     1 
20354 20359     1 
20355 20357     1 
20355 20358     1 
20355 20359     1 
20356 20363     1 
20356 20364     1 
20356 20365     1 
20357 20360     1 
20357 20361     1 
20357 20362     1 
20358 20360     1 
20358 20361     1 
20358 20362     1 
20359 20366     1 
20359 20367     1 
20359 20368     1 
20360 20363     1 
20360 20364     1 
20360 20365     1 
20361 20363     1 
20361 20364     1 
20361 20365     1 
20363 20366     1 
20363 20367     1 
20363 20368     1 
20364 20366     1 
20364 20367     1 
20364 20368     1 
20369 20386     1 
20369 20387     1 
20369 20391     1 
20370 20374     1 
20370 20375     1 
20370 20376     1 
20370 20378     1 
20370 20379     1 
20370 20380     1 
20370 20382     1 
20370 20383     1 
20370 20384     1 
20370 20388     1 
20371 20373     1 
20371 20377     1 
20371 20381     1 
20371 20386     1 
20371 20387     1 
20371 20391     1 
20372 20373     1 
20372 20377     1 
20372 20381     1 
20372 20386     1 
20372 20387     1 
20372 20391     1 
20373 20378     1 
20373 20379     1 
20373 20380     1 
20373 20382     1 
20373 20383     1 
20373 20384     1 
20373 20385     1 
20374 20377     1 
20374 20381     1 
20375 20377     1 
20375 20381     1 
20376 20377     1 
20376 20381     1 
20377 20382     1 
20377 20383     1 
20377 20384     1 
20377 20385     1 
20378 20381     1 
20379 20381     1 
20380 20381     1 
20381 20385     1 
20385 20389     1 
20385 20390     1 
20385 20392     1 
20386 20388     1 
20387 20388     1 
20388 20394     1 
20388 20395     1 
20388 20396     1 
20389 20393     1 
20390 20393     1 
20391 20393     1 
20392 20397     1 
20392 20398     1 
20392 20404     1 
20393 20399     1 
20393 20405     1 
20393 20406     1 
20393 20407     1 
20394 20397     1 
20394 20398     1 
20394 20404     1 
20395 20397     1 
20395 20398     1 
20395 20404     1 
20396 20400     1 
20396 20401     1 
20396 20408     1 
20397 20399     1 
20397 20405     1 
20397 20406     1 
20397 20407     1 
20398 20402     1 
20398 20403     1 
20398 20405     1 
20398 20406     1 
20398 20407     1 
20398 20413     1 
20399 20404     1 
20399 20414     1 
20399 20415     1 
20399 20416     1 
20400 20402     1 
20400 20403     1 
20400 20413     1 
20401 20417     1 
20401 20418     1 
20401 20419     1 
20402 20414     1 
20402 20415     1 
20402 20416     1 
20403 20414     1 
20403 20415     1 
20403 20416     1 
20404 20409     1 
20404 20410     1 
20405 20408     1 
20406 20408     1 
20407 20411     1 
20407 20412     1 
20407 20460     1 
20408 20461     1 
20408 20462     1 
20408 20463     1 
20409 20411     1 
20409 20412     1 
20409 20460     1 
20410 20464     1 
20410 20465     1 
20410 20466     1 
20411 20461     1 
20411 20462     1 
20411 20463     1 
20412 20461     1 
20412 20462     1 
20412 20463     1 
20413 20420     1 
20413 20421     1 
20413 20422     1 
20414 20417     1 
20414 20418     1 
20414 20419     1 
20415 20417     1 
20415 20418     1 
20415 20419     1 
20416 20423     1 
20416 20424     1 
20416 20425     1 
20417 20420     1 
20417 20421     1 
20417 20422     1 
20418 20420     1 
20418 20421     1 
20418 20422     1 
20419 20426     1 
20419 20427     1 
20419 20428     1 
20420 20423     1 
20420 20424     1 
20420 20425     1 
20421 20423     1 
20421 20424     1 
20421 20425     1 
20422 20429     1 
20422 20430     1 
20422 20431     1 
20423 20426     1 
20423 20427     1 
20423 20428     1 
20424 20426     1 
20424 20427     1 
20424 20428     1 
20425 20432     1 
20425 20433     1 
20426 20429     1 
20426 20430     1 
20426 20431     1 
20427 20429     1 
20427 20430     1 
20427 20431     1 
20428 20434     1 
20428 20435     1 
20429 20432     1 
20429 20433     1 
20430 20432     1 
20430 20433     1 
20431 20436     1 
20431 20437     1 
20431 20438     1 
20432 20434     1 
20432 20435     1 
20433 20439     1 
20433 20440     1 
20433 20441     1 
20434 20436     1 
20434 20437     1 
20434 20438     1 
20435 20442     1 
20435 20443     1 
20435 20444     1 
20436 20439     1 
20436 20440     1 
20436 20441     1 
20437 20439     1 
20437 20440     1 
20437 20441     1 
20438 20445     1 
20438 20446     1 
20438 20447     1 
20439 20442     1 
20439 20443     1 
20439 20444     1 
20440 20442     1 
20440 20443     1 
20440 20444     1 
20441 20448     1 
20441 20449     1 
20441 20450     1 
20442 20445     1 
20442 20446     1 
20442 20447     1 
20443 20445     1 
20443 20446     1 
20443 20447     1 
20444 20451     1 
20444 20452     1 
20444 20453     1 
20445 20448     1 
20445 20449     1 
20445 20450     1 
20446 20448     1 
20446 20449     1 
20446 20450     1 
20447 20454     1 
20447 20455     1 
20447 20456     1 
20448 20451     1 
20448 20452     1 
20448 20453     1 
20449 20451     1 
20449 20452     1 
20449 20453     1 
20450 20457     1 
20450 20458     1 
20450 20459     1 
20451 20454     1 
20451 20455     1 
20451 20456     1 
20452 20454     1 
20452 20455     1 
20452 20456     1 
20454 20457     1 
20454 20458     1 
20454 20459     1 
20455 20457     1 
20455 20458     1 
20455 20459     1 
20460 20467     1 
20460 20468     1 
20460 20469     1 
20461 20464     1 
20461 20465     1 
20461 20466     1 
20462 20464     1 
20462 20465     1 
20462 20466     1 
20463 20470     1 
20463 20471     1 
20463 20472     1 
20464 20467     1 
20464 20468     1 
20464 20469     1 
20465 20467     1 
20465 20468     1 
20465 20469     1 
20466 20473     1 
20466 20474     1 
20466 20475     1 
20467 20470     1 
20467 20471     1 
20467 20472     1 
20468 20470     1 
20468 20471     1 
20468 20472     1 
20469 20476     1 
20469 20477     1 
20469 20478     1 
20470 20473     1 
20470 20474     1 
20470 20475     1 
20471 20473     1 
20471 20474     1 
20471 20475     1 
20472 20479     1 
20472 20480     1 
20472 20481     1 
20473 20476     1 
20473 20477     1 
20473 20478     1 
20474 20476     1 
20474 20477     1 
20474 20478     1 
20475 20482     1 
20475 20483     1 
20475 20484     1 
20476 20479     1 
20476 20480     1 
20476 20481     1 
20477 20479     1 
20477 20480     1 
20477 20481     1 
20478 20485     1 
20478 20486     1 
20478 20487     1 
20479 20482     1 
20479 20483     1 
20479 20484     1 
20480 20482     1 
20480 20483     1 
20480 20484     1 
20481 20488     1 
20481 20489     1 
20481 20490     1 
20482 20485     1 
20482 20486     1 
20482 20487     1 
20483 20485     1 
20483 20486     1 
20483 20487     1 
20484 20491     1 
20484 20492     1 
20484 20493     1 
20485 20488     1 
20485 20489     1 
20485 20490     1 
20486 20488     1 
20486 20489     1 
20486 20490     1 
20487 20494     1 
20487 20495     1 
20487 20496     1 
20488 20491     1 
20488 20492     1 
20488 20493     1 
20489 20491     1 
20489 20492     1 
20489 20493     1 
20490 20497     1 
20490 20498     1 
20490 20499     1 
20491 20494     1 
20491 20495     1 
20491 20496     1 
20492 20494     1 
20492 20495     1 
20492 20496     1 
20493 20500     1 
20493 20501     1 
20493 20502     1 
20494 20497     1 
20494 20498     1 
20494 20499     1 
20495 20497     1 
20495 20498     1 
20495 20499     1 
20497 20500     1 
20497 20501     1 
20497 20502     1 
20498 20500     1 
20498 20501     1 
20498 20502     1 
20503 20520     1 
20503 20521     1 
20503 20525     1 
20504 20508     1 
20504 20509     1 
20504 20510     1 
20504 20512     1 
20504 20513     1 
20504 20514     1 
20504 20516     1 
20504 20517     1 
20504 20518     1 
20504 20522     1 
20505 20507     1 
20505 20511     1 
20505 20515     1 
20505 20520     1 
20505 20521     1 
20505 20525     1 
20506 20507     1 
20506 20511     1 
20506 20515     1 
20506 20520     1 
20506 20521     1 
20506 20525     1 
20507 20512     1 
20507 20513     1 
20507 20514     1 
20507 20516     1 
20507 20517     1 
20507 20518     1 
20507 20519     1 
20508 20511     1 
20508 20515     1 
20509 20511     1 
20509 20515     1 
20510 20511     1 
20510 20515     1 
20511 20516     1 
20511 20517     1 
20511 20518     1 
20511 20519     1 
20512 20515     1 
20513 20515     1 
20514 20515     1 
20515 20519     1 
20519 20523     1 
20519 20524     1 
20519 20526     1 
20520 20522     1 
20521 20522     1 
20522 20528     1 
20522 20529     1 
20522 20530     1 
20523 20527     1 
20524 20527     1 
20525 20527     1 
20526 20531     1 
20526 20532     1 
20526 20538     1 
20527 20533     1 
20527 20539     1 
20527 20540     1 
20527 20541     1 
20528 20531     1 
20528 20532     1 
20528 20538     1 
20529 20531     1 
20529 20532     1 
20529 20538     1 
20530 20534     1 
20530 20535     1 
20530 20542     1 
20531 20533     1 
20531 20539     1 
20531 20540     1 
20531 20541     1 
20532 20536     1 
20532 20537     1 
20532 20539     1 
20532 20540     1 
20532 20541     1 
20532 20547     1 
20533 20538     1 
20533 20548     1 
20533 20549     1 
20533 20550     1 
20534 20536     1 
20534 20537     1 
20534 20547     1 
20535 20551     1 
20535 20552     1 
20535 20553     1 
20536 20548     1 
20536 20549     1 
20536 20550     1 
20537 20548     1 
20537 20549     1 
20537 20550     1 
20538 20543     1 
20538 20544     1 
20539 20542     1 
20540 20542     1 
20541 20545     1 
20541 20546     1 
20541 20594     1 
20542 20595     1 
20542 20596     1 
20542 20597     1 
20543 20545     1 
20543 20546     1 
20543 20594     1 
20544 20598     1 
20544 20599     1 
20544 20600     1 
20545 20595     1 
20545 20596     1 
20545 20597     1 
20546 20595     1 
20546 20596     1 
20546 20597     1 
20547 20554     1 
20547 20555     1 
20547 20556     1 
20548 20551     1 
20548 20552     1 
20548 20553     1 
20549 20551     1 
20549 20552     1 
20549 20553     1 
20550 20557     1 
20550 20558     1 
20550 20559     1 
20551 20554     1 
20551 20555     1 
20551 20556     1 
20552 20554     1 
20552 20555     1 
20552 20556     1 
20553 20560     1 
20553 20561     1 
20553 20562     1 
20554 20557     1 
20554 20558     1 
20554 20559     1 
20555 20557     1 
20555 20558     1 
20555 20559     1 
20556 20563     1 
20556 20564     1 
20556 20565     1 
20557 20560     1 
20557 20561     1 
20557 20562     1 
20558 20560     1 
20558 20561     1 
20558 20562     1 
20559 20566     1 
20559 20567     1 
20560 20563     1 
20560 20564     1 
20560 20565     1 
20561 20563     1 
20561 20564     1 
20561 20565     1 
20562 20568     1 
20562 20569     1 
20563 20566     1 
20563 20567     1 
20564 20566     1 
20564 20567     1 
20565 20570     1 
20565 20571     1 
20565 20572     1 
20566 20568     1 
20566 20569     1 
20567 20573     1 
20567 20574     1 
20567 20575     1 
20568 20570     1 
20568 20571     1 
20568 20572     1 
20569 20576     1 
20569 20577     1 
20569 20578     1 
20570 20573     1 
20570 20574     1 
20570 20575     1 
20571 20573     1 
20571 20574     1 
20571 20575     1 
20572 20579     1 
20572 20580     1 
20572 20581     1 
20573 20576     1 
20573 20577     1 
20573 20578     1 
20574 20576     1 
20574 20577     1 
20574 20578     1 
20575 20582     1 
20575 20583     1 
20575 20584     1 
20576 20579     1 
20576 20580     1 
20576 20581     1 
20577 20579     1 
20577 20580     1 
20577 20581     1 
20578 20585     1 
20578 20586     1 
20578 20587     1 
20579 20582     1 
20579 20583     1 
20579 20584     1 
20580 20582     1 
20580 20583     1 
20580 20584     1 
20581 20588     1 
20581 20589     1 
20581 20590     1 
20582 20585     1 
20582 20586     1 
20582 20587     1 
20583 20585     1 
20583 20586     1 
20583 20587     1 
20584 20591     1 
20584 20592     1 
20584 20593     1 
20585 20588     1 
20585 20589     1 
20585 20590     1 
20586 20588     1 
20586 20589     1 
20586 20590     1 
20588 20591     1 
20588 20592     1 
20588 20593     1 
20589 20591     1 
20589 20592     1 
20589 20593     1 
20594 20601     1 
20594 20602     1 
20594 20603     1 
20595 20598     1 
20595 20599     1 
20595 20600     1 
20596 20598     1 
20596 20599     1 
20596 20600     1 
20597 20604     1 
20597 20605     1 
20597 20606     1 
20598 20601     1 
20598 20602     1 
20598 20603     1 
20599 20601     1 
20599 20602     1 
20599 20603     1 
20600 20607     1 
20600 20608     1 
20600 20609     1 
20601 20604     1 
20601 20605     1 
20601 20606     1 
20602 20604     1 
20602 20605     1 
20602 20606     1 
20603 20610     1 
20603 20611     1 
20603 20612     1 
20604 20607     1 
20604 20608     1 
20604 20609     1 
20605 20607     1 
20605 20608     1 
20605 20609     1 
20606 20613     1 
20606 20614     1 
20606 20615     1 
20607 20610     1 
20607 20611     1 
20607 20612     1 
20608 20610     1 
20608 20611     1 
20608 20612     1 
20609 20616     1 
20609 20617     1 
20609 20618     1 
20610 20613     1 
20610 20614     1 
20610 20615     1 
20611 20613     1 
20611 20614     1 
20611 20615     1 
20612 20619     1 
20612 20620     1 
20612 20621     1 
20613 20616     1 
20613 20617     1 
20613 20618     1 
20614 20616     1 
20614 20617     1 
20614 20618     1 
20615 20622     1 
20615 20623     1 
20615 20624     1 
20616 20619     1 
20616 20620     1 
20616 20621     1 
20617 20619     1 
20617 20620     1 
20617 20621     1 
20618 20625     1 
20618 20626     1 
20618 20627     1 
20619 20622     1 
20619 20623     1 
20619 20624     1 
20620 20622     1 
20620 20623     1 
20620 20624     1 
20621 20628     1 
20621 20629     1 
20621 20630     1 
20622 20625     1 
20622 20626     1 
20622 20627     1 
20623 20625     1 
20623 20626     1 
20623 20627     1 
20624 20631     1 
20624 20632     1 
20624 20633     1 
20625 20628     1 
20625 20629     1 
20625 20630     1 
20626 20628     1 
20626 20629     1 
20626 20630     1 
20627 20634     1 
20627 20635     1 
20627 20636     1 
20628 20631     1 
20628 20632     1 
20628 20633     1 
20629 20631     1 
20629 20632     1 
20629 20633     1 
20631 20634     1 
20631 20635     1 
20631 20636     1 
20632 20634     1 
20632 20635     1 
20632 20636     1 
20637 20654     1 
20637 20655     1 
20637 20659     1 
20638 20642     1 
20638 20643     1 
20638 20644     1 
20638 20646     1 
20638 20647     1 
20638 20648     1 
20638 20650     1 
20638 20651     1 
20638 20652     1 
20638 20656     1 
20639 20641     1 
20639 20645     1 
20639 20649     1 
20639 20654     1 
20639 20655     1 
20639 20659     1 
20640 20641     1 
20640 20645     1 
20640 20649     1 
20640 20654     1 
20640 20655     1 
20640 20659     1 
20641 20646     1 
20641 20647     1 
20641 20648     1 
20641 20650     1 
20641 20651     1 
20641 20652     1 
20641 20653     1 
20642 20645     1 
20642 20649     1 
20643 20645     1 
20643 20649     1 
20644 20645     1 
20644 20649     1 
20645 20650     1 
20645 20651     1 
20645 20652     1 
20645 20653     1 
20646 20649     1 
20647 20649     1 
20648 20649     1 
20649 20653     1 
20653 20657     1 
20653 20658     1 
20653 20660     1 
20654 20656     1 
20655 20656     1 
20656 20662     1 
20656 20663     1 
20656 20664     1 
20657 20661     1 
20658 20661     1 
20659 20661     1 
20660 20665     1 
20660 20666     1 
20660 20672     1 
20661 20667     1 
20661 20673     1 
20661 20674     1 
20661 20675     1 
20662 20665     1 
20662 20666     1 
20662 20672     1 
20663 20665     1 
20663 20666     1 
20663 20672     1 
20664 20668     1 
20664 20669     1 
20664 20676     1 
20665 20667     1 
20665 20673     1 
20665 20674     1 
20665 20675     1 
20666 20670     1 
20666 20671     1 
20666 20673     1 
20666 20674     1 
20666 20675     1 
20666 20681     1 
20667 20672     1 
20667 20682     1 
20667 20683     1 
20667 20684     1 
20668 20670     1 
20668 20671     1 
20668 20681     1 
20669 20685     1 
20669 20686     1 
20669 20687     1 
20670 20682     1 
20670 20683     1 
20670 20684     1 
20671 20682     1 
20671 20683     1 
20671 20684     1 
20672 20677     1 
20672 20678     1 
20673 20676     1 
20674 20676     1 
20675 20679     1 
20675 20680     1 
20675 20728     1 
20676 20729     1 
20676 20730     1 
20676 20731     1 
20677 20679     1 
20677 20680     1 
20677 20728     1 
20678 20732     1 
20678 20733     1 
20678 20734     1 
20679 20729     1 
20679 20730     1 
20679 20731     1 
20680 20729     1 
20680 20730     1 
20680 20731     1 
20681 20688     1 
20681 20689     1 
20681 20690     1 
20682 20685     1 
20682 20686     1 
20682 20687     1 
20683 20685     1 
20683 20686     1 
20683 20687     1 
20684 20691     1 
20684 20692     1 
20684 20693     1 
20685 20688     1 
20685 20689     1 
20685 20690     1 
20686 20688     1 
20686 20689     1 
20686 20690     1 
20687 20694     1 
20687 20695     1 
20687 20696     1 
20688 20691     1 
20688 20692     1 
20688 20693     1 
20689 20691     1 
20689 20692     1 
20689 20693     1 
20690 20697     1 
20690 20698     1 
20690 20699     1 
20691 20694     1 
20691 20695     1 
20691 20696     1 
20692 20694     1 
20692 20695     1 
20692 20696     1 
20693 20700     1 
20693 20701     1 
20694 20697     1 
20694 20698     1 
20694 20699     1 
20695 20697     1 
20695 20698     1 
20695 20699     1 
20696 20702     1 
20696 20703     1 
20697 20700     1 
20697 20701     1 
20698 20700     1 
20698 20701     1 
20699 20704     1 
20699 20705     1 
20699 20706     1 
20700 20702     1 
20700 20703     1 
20701 20707     1 
20701 20708     1 
20701 20709     1 
20702 20704     1 
20702 20705     1 
20702 20706     1 
20703 20710     1 
20703 20711     1 
20703 20712     1 
20704 20707     1 
20704 20708     1 
20704 20709     1 
20705 20707     1 
20705 20708     1 
20705 20709     1 
20706 20713     1 
20706 20714     1 
20706 20715     1 
20707 20710     1 
20707 20711     1 
20707 20712     1 
20708 20710     1 
20708 20711     1 
20708 20712     1 
20709 20716     1 
20709 20717     1 
20709 20718     1 
20710 20713     1 
20710 20714     1 
20710 20715     1 
20711 20713     1 
20711 20714     1 
20711 20715     1 
20712 20719     1 
20712 20720     1 
20712 20721     1 
20713 20716     1 
20713 20717     1 
20713 20718     1 
20714 20716     1 
20714 20717     1 
20714 20718     1 
20715 20722     1 
20715 20723     1 
20715 20724     1 
20716 20719     1 
20716 20720     1 
20716 20721     1 
20717 20719     1 
20717 20720     1 
20717 20721     1 
20718 20725     1 
20718 20726     1 
20718 20727     1 
20719 20722     1 
20719 20723     1 
20719 20724     1 
20720 20722     1 
20720 20723     1 
20720 20724     1 
20722 20725     1 
20722 20726     1 
20722 20727     1 
20723 20725     1 
20723 20726     1 
20723 20727     1 
20728 20735     1 
20728 20736     1 
20728 20737     1 
20729 20732     1 
20729 20733     1 
20729 20734     1 
20730 20732     1 
20730 20733     1 
20730 20734     1 
20731 20738     1 
20731 20739     1 
20731 20740     1 
20732 20735     1 
20732 20736     1 
20732 20737     1 
20733 20735     1 
20733 20736     1 
20733 20737     1 
20734 20741     1 
20734 20742     1 
20734 20743     1 
20735 20738     1 
20735 20739     1 
20735 20740     1 
20736 20738     1 
20736 20739     1 
20736 20740     1 
20737 20744     1 
20737 20745     1 
20737 20746     1 
20738 20741     1 
20738 20742     1 
20738 20743     1 
20739 20741     1 
20739 20742     1 
20739 20743     1 
20740 20747     1 
20740 20748     1 
20740 20749     1 
20741 20744     1 
20741 20745     1 
20741 20746     1 
20742 20744     1 
20742 20745     1 
20742 20746     1 
20743 20750     1 
20743 20751     1 
20743 20752     1 
20744 20747     1 
20744 20748     1 
20744 20749     1 
20745 20747     1 
20745 20748     1 
20745 20749     1 
20746 20753     1 
20746 20754     1 
20746 20755     1 
20747 20750     1 
20747 20751     1 
20747 20752     1 
20748 20750     1 
20748 20751     1 
20748 20752     1 
20749 20756     1 
20749 20757     1 
20749 20758     1 
20750 20753     1 
20750 20754     1 
20750 20755     1 
20751 20753     1 
20751 20754     1 
20751 20755     1 
20752 20759     1 
20752 20760     1 
20752 20761     1 
20753 20756     1 
20753 20757     1 
20753 20758     1 
20754 20756     1 
20754 20757     1 
20754 20758     1 
20755 20762     1 
20755 20763     1 
20755 20764     1 
20756 20759     1 
20756 20760     1 
20756 20761     1 
20757 20759     1 
20757 20760     1 
20757 20761     1 
20758 20765     1 
20758 20766     1 
20758 20767     1 
20759 20762     1 
20759 20763     1 
20759 20764     1 
20760 20762     1 
20760 20763     1 
20760 20764     1 
20761 20768     1 
20761 20769     1 
20761 20770     1 
20762 20765     1 
20762 20766     1 
20762 20767     1 
20763 20765     1 
20763 20766     1 
20763 20767     1 
20765 20768     1 
20765 20769     1 
20765 20770     1 
20766 20768     1 
20766 20769     1 
20766 20770     1 
20771 20788     1 
20771 20789     1 
20771 20793     1 
20772 20776     1 
20772 20777     1 
20772 20778     1 
20772 20780     1 
20772 20781     1 
20772 20782     1 
20772 20784     1 
20772 20785     1 
20772 20786     1 
20772 20790     1 
20773 20775     1 
20773 20779     1 
20773 20783     1 
20773 20788     1 
20773 20789     1 
20773 20793     1 
20774 20775     1 
20774 20779     1 
20774 20783     1 
20774 20788     1 
20774 20789     1 
20774 20793     1 
20775 20780     1 
20775 20781     1 
20775 20782     1 
20775 20784     1 
20775 20785     1 
20775 20786     1 
20775 20787     1 
20776 20779     1 
20776 20783     1 
20777 20779     1 
20777 20783     1 
20778 20779     1 
20778 20783     1 
20779 20784     1 
20779 20785     1 
20779 20786     1 
20779 20787     1 
20780 20783     1 
20781 20783     1 
20782 20783     1 
20783 20787     1 
20787 20791     1 
20787 20792     1 
20787 20794     1 
20788 20790     1 
20789 20790     1 
20790 20796     1 
20790 20797     1 
20790 20798     1 
20791 20795     1 
20792 20795     1 
20793 20795     1 
20794 20799     1 
20794 20800     1 
20794 20806     1 
20795 20801     1 
20795 20807     1 
20795 20808     1 
20795 20809     1 
20796 20799     1 
20796 20800     1 
20796 20806     1 
20797 20799     1 
20797 20800     1 
20797 20806     1 
20798 20802     1 
20798 20803     1 
20798 20810     1 
20799 20801     1 
20799 20807     1 
20799 20808     1 
20799 20809     1 
20800 20804     1 
20800 20805     1 
20800 20807     1 
20800 20808     1 
20800 20809     1 
20800 20815     1 
20801 20806     1 
20801 20816     1 
20801 20817     1 
20801 20818     1 
20802 20804     1 
20802 20805     1 
20802 20815     1 
20803 20819     1 
20803 20820     1 
20803 20821     1 
20804 20816     1 
20804 20817     1 
20804 20818     1 
20805 20816     1 
20805 20817     1 
20805 20818     1 
20806 20811     1 
20806 20812     1 
20807 20810     1 
20808 20810     1 
20809 20813     1 
20809 20814     1 
20809 20862     1 
20810 20863     1 
20810 20864     1 
20810 20865     1 
20811 20813     1 
20811 20814     1 
20811 20862     1 
20812 20866     1 
20812 20867     1 
20812 20868     1 
20813 20863     1 
20813 20864     1 
20813 20865     1 
20814 20863     1 
20814 20864     1 
20814 20865     1 
20815 20822     1 
20815 20823     1 
20815 20824     1 
20816 20819     1 
20816 20820     1 
20816 20821     1 
20817 20819     1 
20817 20820     1 
20817 20821     1 
20818 20825     1 
20818 20826     1 
20818 20827     1 
20819 20822     1 
20819 20823     1 
20819 20824     1 
20820 20822     1 
20820 20823     1 
20820 20824     1 
20821 20828     1 
20821 20829     1 
20821 20830     1 
20822 20825     1 
20822 20826     1 
20822 20827     1 
20823 20825     1 
20823 20826     1 
20823 20827     1 
20824 20831     1 
20824 20832     1 
20824 20833     1 
20825 20828     1 
20825 20829     1 
20825 20830     1 
20826 20828     1 
20826 20829     1 
20826 20830     1 
20827 20834     1 
20827 20835     1 
20828 20831     1 
20828 20832     1 
20828 20833     1 
20829 20831     1 
20829 20832     1 
20829 20833     1 
20830 20836     1 
20830 20837     1 
20831 20834     1 
20831 20835     1 
20832 20834     1 
20832 20835     1 
20833 20838     1 
20833 20839     1 
20833 20840     1 
20834 20836     1 
20834 20837     1 
20835 20841     1 
20835 20842     1 
20835 20843     1 
20836 20838     1 
20836 20839     1 
20836 20840     1 
20837 20844     1 
20837 20845     1 
20837 20846     1 
20838 20841     1 
20838 20842     1 
20838 20843     1 
20839 20841     1 
20839 20842     1 
20839 20843     1 
20840 20847     1 
20840 20848     1 
20840 20849     1 
20841 20844     1 
20841 20845     1 
20841 20846     1 
20842 20844     1 
20842 20845     1 
20842 20846     1 
20843 20850     1 
20843 20851     1 
20843 20852     1 
20844 20847     1 
20844 20848     1 
20844 20849     1 
20845 20847     1 
20845 20848     1 
20845 20849     1 
20846 20853     1 
20846 20854     1 
20846 20855     1 
20847 20850     1 
20847 20851     1 
20847 20852     1 
20848 20850     1 
20848 20851     1 
20848 20852     1 
20849 20856     1 
20849 20857     1 
20849 20858     1 
20850 20853     1 
20850 20854     1 
20850 20855     1 
20851 20853     1 
20851 20854     1 
20851 20855     1 
20852 20859     1 
20852 20860     1 
20852 20861     1 
20853 20856     1 
20853 20857     1 
20853 20858     1 
20854 20856     1 
20854 20857     1 
20854 20858     1 
20856 20859     1 
20856 20860     1 
20856 20861     1 
20857 20859     1 
20857 20860     1 
20857 20861     1 
20862 20869     1 
20862 20870     1 
20862 20871     1 
20863 20866     1 
20863 20867     1 
20863 20868     1 
20864 20866     1 
20864 20867     1 
20864 20868     1 
20865 20872     1 
20865 20873     1 
20865 20874     1 
20866 20869     1 
20866 20870     1 
20866 20871     1 
20867 20869     1 
20867 20870     1 
20867 20871     1 
20868 20875     1 
20868 20876     1 
20868 20877     1 
20869 20872     1 
20869 20873     1 
20869 20874     1 
20870 20872     1 
20870 20873     1 
20870 20874     1 
20871 20878     1 
20871 20879     1 
20871 20880     1 
20872 20875     1 
20872 20876     1 
20872 20877     1 
20873 20875     1 
20873 20876     1 
20873 20877     1 
20874 20881     1 
20874 20882     1 
20874 20883     1 
20875 20878     1 
20875 20879     1 
20875 20880     1 
20876 20878     1 
20876 20879     1 
20876 20880     1 
20877 20884     1 
20877 20885     1 
20877 20886     1 
20878 20881     1 
20878 20882     1 
20878 20883     1 
20879 20881     1 
20879 20882     1 
20879 20883     1 
20880 20887     1 
20880 20888     1 
20880 20889     1 
20881 20884     1 
20881 20885     1 
20881 20886     1 
20882 20884     1 
20882 20885     1 
20882 20886     1 
20883 20890     1 
20883 20891     1 
20883 20892     1 
20884 20887     1 
20884 20888     1 
20884 20889     1 
20885 20887     1 
20885 20888     1 
20885 20889     1 
20886 20893     1 
20886 20894     1 
20886 20895     1 
20887 20890     1 
20887 20891     1 
20887 20892     1 
20888 20890     1 
20888 20891     1 
20888 20892     1 
20889 20896     1 
20889 20897     1 
20889 20898     1 
20890 20893     1 
20890 20894     1 
20890 20895     1 
20891 20893     1 
20891 20894     1 
20891 20895     1 
20892 20899     1 
20892 20900     1 
20892 20901     1 
20893 20896     1 
20893 20897     1 
20893 20898     1 
20894 20896     1 
20894 20897     1 
20894 20898     1 
20895 20902     1 
20895 20903     1 
20895 20904     1 
20896 20899     1 
20896 20900     1 
20896 20901     1 
20897 20899     1 
20897 20900     1 
20897 20901     1 
20899 20902     1 
20899 20903     1 
20899 20904     1 
20900 20902     1 
20900 20903     1 
20900 20904     1 
20905 20922     1 
20905 20923     1 
20905 20927     1 
20906 20910     1 
20906 20911     1 
20906 20912     1 
20906 20914     1 
20906 20915     1 
20906 20916     1 
20906 20918     1 
20906 20919     1 
20906 20920     1 
20906 20924     1 
20907 20909     1 
20907 20913     1 
20907 20917     1 
20907 20922     1 
20907 20923     1 
20907 20927     1 
20908 20909     1 
20908 20913     1 
20908 20917     1 
20908 20922     1 
20908 20923     1 
20908 20927     1 
20909 20914     1 
20909 20915     1 
20909 20916     1 
20909 20918     1 
20909 20919     1 
20909 20920     1 
20909 20921     1 
20910 20913     1 
20910 20917     1 
20911 20913     1 
20911 20917     1 
20912 20913     1 
20912 20917     1 
20913 20918     1 
20913 20919     1 
20913 20920     1 
20913 20921     1 
20914 20917     1 
20915 20917     1 
20916 20917     1 
20917 20921     1 
20921 20925     1 
20921 20926     1 
20921 20928     1 
20922 20924     1 
20923 20924     1 
20924 20930     1 
20924 20931     1 
20924 20932     1 
20925 20929     1 
20926 20929     1 
20927 20929     1 
20928 20933     1 
20928 20934     1 
20928 20940     1 
20929 20935     1 
20929 20941     1 
20929 20942     1 
20929 20943     1 
20930 20933     1 
20930 20934     1 
20930 20940     1 
20931 20933     1 
20931 20934     1 
20931 20940     1 
20932 20936     1 
20932 20937     1 
20932 20944     1 
20933 20935     1 
20933 20941     1 
20933 20942     1 
20933 20943     1 
20934 20938     1 
20934 20939     1 
20934 20941     1 
20934 20942     1 
20934 20943     1 
20934 20949     1 
20935 20940     1 
20935 20950     1 
20935 20951     1 
20935 20952     1 
20936 20938     1 
20936 20939     1 
20936 20949     1 
20937 20953     1 
20937 20954     1 
20937 20955     1 
20938 20950     1 
20938 20951     1 
20938 20952     1 
20939 20950     1 
20939 20951     1 
20939 20952     1 
20940 20945     1 
20940 20946     1 
20941 20944     1 
20942 20944     1 
20943 20947     1 
20943 20948     1 
20943 20996     1 
20944 20997     1 
20944 20998     1 
20944 20999     1 
20945 20947     1 
20945 20948     1 
20945 20996     1 
20946 21000     1 
20946 21001     1 
20946 21002     1 
20947 20997     1 
20947 20998     1 
20947 20999     1 
20948 20997     1 
20948 20998     1 
20948 20999     1 
20949 20956     1 
20949 20957     1 
20949 20958     1 
20950 20953     1 
20950 20954     1 
20950 20955     1 
20951 20953     1 
20951 20954     1 
20951 20955     1 
20952 20959     1 
20952 20960     1 
20952 20961     1 
20953 20956     1 
20953 20957     1 
20953 20958     1 
20954 20956     1 
20954 20957     1 
20954 20958     1 
20955 20962     1 
20955 20963     1 
20955 20964     1 
20956 20959     1 
20956 20960     1 
20956 20961     1 
20957 20959     1 
20957 20960     1 
20957 20961     1 
20958 20965     1 
20958 20966     1 
20958 20967     1 
20959 20962     1 
20959 20963     1 
20959 20964     1 
20960 20962     1 
20960 20963     1 
20960 20964     1 
20961 20968     1 
20961 20969     1 
20962 20965     1 
20962 20966     1 
20962 20967     1 
20963 20965     1 
20963 20966     1 
20963 20967     1 
20964 20970     1 
20964 20971     1 
20965 20968     1 
20965 20969     1 
20966 20968     1 
20966 20969     1 
20967 20972     1 
20967 20973     1 
20967 20974     1 
20968 20970     1 
20968 20971     1 
20969 20975     1 
20969 20976     1 
20969 20977     1 
20970 20972     1 
20970 20973     1 
20970 20974     1 
20971 20978     1 
20971 20979     1 
20971 20980     1 
20972 20975     1 
20972 20976     1 
20972 20977     1 
20973 20975     1 
20973 20976     1 
20973 20977     1 
20974 20981     1 
20974 20982     1 
20974 20983     1 
20975 20978     1 
20975 20979     1 
20975 20980     1 
20976 20978     1 
20976 20979     1 
20976 20980     1 
20977 20984     1 
20977 20985     1 
20977 20986     1 
20978 20981     1 
20978 20982     1 
20978 20983     1 
20979 20981     1 
20979 20982     1 
20979 20983     1 
20980 20987     1 
20980 20988     1 
20980 20989     1 
20981 20984     1 
20981 20985     1 
20981 20986     1 
20982 20984     1 
20982 20985     1 
20982 20986     1 
20983 20990     1 
20983 20991     1 
20983 20992     1 
20984 20987     1 
20984 20988     1 
20984 20989     1 
20985 20987     1 
20985 20988     1 
20985 20989     1 
20986 20993     1 
20986 20994     1 
20986 20995     1 
20987 20990     1 
20987 20991     1 
20987 20992     1 
20988 20990     1 
20988 20991     1 
20988 20992     1 
20990 20993     1 
20990 20994     1 
20990 20995     1 
20991 20993     1 
20991 20994     1 
20991 20995     1 
20996 21003     1 
20996 21004     1 
20996 21005     1 
20997 21000     1 
20997 21001     1 
20997 21002     1 
20998 21000     1 
20998 21001     1 
20998 21002     1 
20999 21006     1 
20999 21007     1 
20999 21008     1 
21000 21003     1 
21000 21004     1 
21000 21005     1 
21001 21003     1 
21001 21004     1 
21001 21005     1 
21002 21009     1 
21002 21010     1 
21002 21011     1 
21003 21006     1 
21003 21007     1 
21003 21008     1 
21004 21006     1 
21004 21007     1 
21004 21008     1 
21005 21012     1 
21005 21013     1 
21005 21014     1 
21006 21009     1 
21006 21010     1 
21006 21011     1 
21007 21009     1 
21007 21010     1 
21007 21011     1 
21008 21015     1 
21008 21016     1 
21008 21017     1 
21009 21012     1 
21009 21013     1 
21009 21014     1 
21010 21012     1 
21010 21013     1 
21010 21014     1 
21011 21018     1 
21011 21019     1 
21011 21020     1 
21012 21015     1 
21012 21016     1 
21012 21017     1 
21013 21015     1 
21013 21016     1 
21013 21017     1 
21014 21021     1 
21014 21022     1 
21014 21023     1 
21015 21018     1 
21015 21019     1 
21015 21020     1 
21016 21018     1 
21016 21019     1 
21016 21020     1 
21017 21024     1 
21017 21025     1 
21017 21026     1 
21018 21021     1 
21018 21022     1 
21018 21023     1 
21019 21021     1 
21019 21022     1 
21019 21023     1 
21020 21027     1 
21020 21028     1 
21020 21029     1 
21021 21024     1 
21021 21025     1 
21021 21026     1 
21022 21024     1 
21022 21025     1 
21022 21026     1 
21023 21030     1 
21023 21031     1 
21023 21032     1 
21024 21027     1 
21024 21028     1 
21024 21029     1 
21025 21027     1 
21025 21028     1 
21025 21029     1 
21026 21033     1 
21026 21034     1 
21026 21035     1 
21027 21030     1 
21027 21031     1 
21027 21032     1 
21028 21030     1 
21028 21031     1 
21028 21032     1 
21029 21036     1 
21029 21037     1 
21029 21038     1 
21030 21033     1 
21030 21034     1 
21030 21035     1 
21031 21033     1 
21031 21034     1 
21031 21035     1 
21033 21036     1 
21033 21037     1 
21033 21038     1 
21034 21036     1 
21034 21037     1 
21034 21038     1 
21039 21056     1 
21039 21057     1 
21039 21061     1 
21040 21044     1 
21040 21045     1 
21040 21046     1 
21040 21048     1 
21040 21049     1 
21040 21050     1 
21040 21052     1 
21040 21053     1 
21040 21054     1 
21040 21058     1 
21041 21043     1 
21041 21047     1 
21041 21051     1 
21041 21056     1 
21041 21057     1 
21041 21061     1 
21042 21043     1 
21042 21047     1 
21042 21051     1 
21042 21056     1 
21042 21057     1 
21042 21061     1 
21043 21048     1 
21043 21049     1 
21043 21050     1 
21043 21052     1 
21043 21053     1 
21043 21054     1 
21043 21055     1 
21044 21047     1 
21044 21051     1 
21045 21047     1 
21045 21051     1 
21046 21047     1 
21046 21051     1 
21047 21052     1 
21047 21053     1 
21047 21054     1 
21047 21055     1 
21048 21051     1 
21049 21051     1 
21050 21051     1 
21051 21055     1 
21055 21059     1 
21055 21060     1 
21055 21062     1 
21056 21058     1 
21057 21058     1 
21058 21064     1 
21058 21065     1 
21058 21066     1 
21059 21063     1 
21060 21063     1 
21061 21063     1 
21062 21067     1 
21062 21068     1 
21062 21074     1 
21063 21069     1 
21063 21075     1 
21063 21076     1 
21063 21077     1 
21064 21067     1 
21064 21068     1 
21064 21074     1 
21065 21067     1 
21065 21068     1 
21065 21074     1 
21066 21070     1 
21066 21071     1 
21066 21078     1 
21067 21069     1 
21067 21075     1 
21067 21076     1 
21067 21077     1 
21068 21072     1 
21068 21073     1 
21068 21075     1 
21068 21076     1 
21068 21077     1 
21068 21083     1 
21069 21074     1 
21069 21084     1 
21069 21085     1 
21069 21086     1 
21070 21072     1 
21070 21073     1 
21070 21083     1 
21071 21087     1 
21071 21088     1 
21071 21089     1 
21072 21084     1 
21072 21085     1 
21072 21086     1 
21073 21084     1 
21073 21085     1 
21073 21086     1 
21074 21079     1 
21074 21080     1 
21075 21078     1 
21076 21078     1 
21077 21081     1 
21077 21082     1 
21077 21130     1 
21078 21131     1 
21078 21132     1 
21078 21133     1 
21079 21081     1 
21079 21082     1 
21079 21130     1 
21080 21134     1 
21080 21135     1 
21080 21136     1 
21081 21131     1 
21081 21132     1 
21081 21133     1 
21082 21131     1 
21082 21132     1 
21082 21133     1 
21083 21090     1 
21083 21091     1 
21083 21092     1 
21084 21087     1 
21084 21088     1 
21084 21089     1 
21085 21087     1 
21085 21088     1 
21085 21089     1 
21086 21093     1 
21086 21094     1 
21086 21095     1 
21087 21090     1 
21087 21091     1 
21087 21092     1 
21088 21090     1 
21088 21091     1 
21088 21092     1 
21089 21096     1 
21089 21097     1 
21089 21098     1 
21090 21093     1 
21090 21094     1 
21090 21095     1 
21091 21093     1 
21091 21094     1 
21091 21095     1 
21092 21099     1 
21092 21100     1 
21092 21101     1 
21093 21096     1 
21093 21097     1 
21093 21098     1 
21094 21096     1 
21094 21097     1 
21094 21098     1 
21095 21102     1 
21095 21103     1 
21096 21099     1 
21096 21100     1 
21096 21101     1 
21097 21099     1 
21097 21100     1 
21097 21101     1 
21098 21104     1 
21098 21105     1 
21099 21102     1 
21099 21103     1 
21100 21102     1 
21100 21103     1 
21101 21106     1 
21101 21107     1 
21101 21108     1 
21102 21104     1 
21102 21105     1 
21103 21109     1 
21103 21110     1 
21103 21111     1 
21104 21106     1 
21104 21107     1 
21104 21108     1 
21105 21112     1 
21105 21113     1 
21105 21114     1 
21106 21109     1 
21106 21110     1 
21106 21111     1 
21107 21109     1 
21107 21110     1 
21107 21111     1 
21108 21115     1 
21108 21116     1 
21108 21117     1 
21109 21112     1 
21109 21113     1 
21109 21114     1 
21110 21112     1 
21110 21113     1 
21110 21114     1 
21111 21118     1 
21111 21119     1 
21111 21120     1 
21112 21115     1 
21112 21116     1 
21112 21117     1 
21113 21115     1 
21113 21116     1 
21113 21117     1 
21114 21121     1 
21114 21122     1 
21114 21123     1 
21115 21118     1 
21115 21119     1 
21115 21120     1 
21116 21118     1 
21116 21119     1 
21116 21120     1 
21117 21124     1 
21117 21125     1 
21117 21126     1 
21118 21121     1 
21118 21122     1 
21118 21123     1 
21119 21121     1 
21119 21122     1 
21119 21123     1 
21120 21127     1 
21120 21128     1 
21120 21129     1 
21121 21124     1 
21121 21125     1 
21121 21126     1 
21122 21124     1 
21122 21125     1 
21122 21126     1 
21124 21127     1 
21124 21128     1 
21124 21129     1 
21125 21127     1 
21125 21128     1 
21125 21129     1 
21130 21137     1 
21130 21138     1 
21130 21139     1 
21131 21134     1 
21131 21135     1 
21131 21136     1 
21132 21134     1 
21132 21135     1 
21132 21136     1 
21133 21140     1 
21133 21141     1 
21133 21142     1 
21134 21137     1 
21134 21138     1 
21134 21139     1 
21135 21137     1 
21135 21138     1 
21135 21139     1 
21136 21143     1 
21136 21144     1 
21136 21145     1 
21137 21140     1 
21137 21141     1 
21137 21142     1 
21138 21140     1 
21138 21141     1 
21138 21142     1 
21139 21146     1 
21139 21147     1 
21139 21148     1 
21140 21143     1 
21140 21144     1 
21140 21145     1 
21141 21143     1 
21141 21144     1 
21141 21145     1 
21142 21149     1 
21142 21150     1 
21142 21151     1 
21143 21146     1 
21143 21147     1 
21143 21148     1 
21144 21146     1 
21144 21147     1 
21144 21148     1 
21145 21152     1 
21145 21153     1 
21145 21154     1 
21146 21149     1 
21146 21150     1 
21146 21151     1 
21147 21149     1 
21147 21150     1 
21147 21151     1 
21148 21155     1 
21148 21156     1 
21148 21157     1 
21149 21152     1 
21149 21153     1 
21149 21154     1 
21150 21152     1 
21150 21153     1 
21150 21154     1 
21151 21158     1 
21151 21159     1 
21151 21160     1 
21152 21155     1 
21152 21156     1 
21152 21157     1 
21153 21155     1 
21153 21156     1 
21153 21157     1 
21154 21161     1 
21154 21162     1 
21154 21163     1 
21155 21158     1 
21155 21159     1 
21155 21160     1 
21156 21158     1 
21156 21159     1 
21156 21160     1 
21157 21164     1 
21157 21165     1 
21157 21166     1 
21158 21161     1 
21158 21162     1 
21158 21163     1 
21159 21161     1 
21159 21162     1 
21159 21163     1 
21160 21167     1 
21160 21168     1 
21160 21169     1 
21161 21164     1 
21161 21165     1 
21161 21166     1 
21162 21164     1 
21162 21165     1 
21162 21166     1 
21163 21170     1 
21163 21171     1 
21163 21172     1 
21164 21167     1 
21164 21168     1 
21164 21169     1 
21165 21167     1 
21165 21168     1 
21165 21169     1 
21167 21170     1 
21167 21171     1 
21167 21172     1 
21168 21170     1 
21168 21171     1 
21168 21172     1 
21173 21190     1 
21173 21191     1 
21173 21195     1 
21174 21178     1 
21174 21179     1 
21174 21180     1 
21174 21182     1 
21174 21183     1 
21174 21184     1 
21174 21186     1 
21174 21187     1 
21174 21188     1 
21174 21192     1 
21175 21177     1 
21175 21181     1 
21175 21185     1 
21175 21190     1 
21175 21191     1 
21175 21195     1 
21176 21177     1 
21176 21181     1 
21176 21185     1 
21176 21190     1 
21176 21191     1 
21176 21195     1 
21177 21182     1 
21177 21183     1 
21177 21184     1 
21177 21186     1 
21177 21187     1 
21177 21188     1 
21177 21189     1 
21178 21181     1 
21178 21185     1 
21179 21181     1 
21179 21185     1 
21180 21181     1 
21180 21185     1 
21181 21186     1 
21181 21187     1 
21181 21188     1 
21181 21189     1 
21182 21185     1 
21183 21185     1 
21184 21185     1 
21185 21189     1 
21189 21193     1 
21189 21194     1 
21189 21196     1 
21190 21192     1 
21191 21192     1 
21192 21198     1 
21192 21199     1 
21192 21200     1 
21193 21197     1 
21194 21197     1 
21195 21197     1 
21196 21201     1 
21196 21202     1 
21196 21208     1 
21197 21203     1 
21197 21209     1 
21197 21210     1 
21197 21211     1 
21198 21201     1 
21198 21202     1 
21198 21208     1 
21199 21201     1 
21199 21202     1 
21199 21208     1 
21200 21204     1 
21200 21205     1 
21200 21212     1 
21201 21203     1 
21201 21209     1 
21201 21210     1 
21201 21211     1 
21202 21206     1 
21202 21207     1 
21202 21209     1 
21202 21210     1 
21202 21211     1 
21202 21217     1 
21203 21208     1 
21203 21218     1 
21203 21219     1 
21203 21220     1 
21204 21206     1 
21204 21207     1 
21204 21217     1 
21205 21221     1 
21205 21222     1 
21205 21223     1 
21206 21218     1 
21206 21219     1 
21206 21220     1 
21207 21218     1 
21207 21219     1 
21207 21220     1 
21208 21213     1 
21208 21214     1 
21209 21212     1 
21210 21212     1 
21211 21215     1 
21211 21216     1 
21211 21264     1 
21212 21265     1 
21212 21266     1 
21212 21267     1 
21213 21215     1 
21213 21216     1 
21213 21264     1 
21214 21268     1 
21214 21269     1 
21214 21270     1 
21215 21265     1 
21215 21266     1 
21215 21267     1 
21216 21265     1 
21216 21266     1 
21216 21267     1 
21217 21224     1 
21217 21225     1 
21217 21226     1 
21218 21221     1 
21218 21222     1 
21218 21223     1 
21219 21221     1 
21219 21222     1 
21219 21223     1 
21220 21227     1 
21220 21228     1 
21220 21229     1 
21221 21224     1 
21221 21225     1 
21221 21226     1 
21222 21224     1 
21222 21225     1 
21222 21226     1 
21223 21230     1 
21223 21231     1 
21223 21232     1 
21224 21227     1 
21224 21228     1 
21224 21229     1 
21225 21227     1 
21225 21228     1 
21225 21229     1 
21226 21233     1 
21226 21234     1 
21226 21235     1 
21227 21230     1 
21227 21231     1 
21227 21232     1 
21228 21230     1 
21228 21231     1 
21228 21232     1 
21229 21236     1 
21229 21237     1 
21230 21233     1 
21230 21234     1 
21230 21235     1 
21231 21233     1 
21231 21234     1 
21231 21235     1 
21232 21238     1 
21232 21239     1 
21233 21236     1 
21233 21237     1 
21234 21236     1 
21234 21237     1 
21235 21240     1 
21235 21241     1 
21235 21242     1 
21236 21238     1 
21236 21239     1 
21237 21243     1 
21237 21244     1 
21237 21245     1 
21238 21240     1 
21238 21241     1 
21238 21242     1 
21239 21246     1 
21239 21247     1 
21239 21248     1 
21240 21243     1 
21240 21244     1 
21240 21245     1 
21241 21243     1 
21241 21244     1 
21241 21245     1 
21242 21249     1 
21242 21250     1 
21242 21251     1 
21243 21246     1 
21243 21247     1 
21243 21248     1 
21244 21246     1 
21244 21247     1 
21244 21248     1 
21245 21252     1 
21245 21253     1 
21245 21254     1 
21246 21249     1 
21246 21250     1 
21246 21251     1 
21247 21249     1 
21247 21250     1 
21247 21251     1 
21248 21255     1 
21248 21256     1 
21248 21257     1 
21249 21252     1 
21249 21253     1 
21249 21254     1 
21250 21252     1 
21250 21253     1 
21250 21254     1 
21251 21258     1 
21251 21259     1 
21251 21260     1 
21252 21255     1 
21252 21256     1 
21252 21257     1 
21253 21255     1 
21253 21256     1 
21253 21257     1 
21254 21261     1 
21254 21262     1 
21254 21263     1 
21255 21258     1 
21255 21259     1 
21255 21260     1 
21256 21258     1 
21256 21259     1 
21256 21260     1 
21258 21261     1 
21258 21262     1 
21258 21263     1 
21259 21261     1 
21259 21262     1 
21259 21263     1 
21264 21271     1 
21264 21272     1 
21264 21273     1 
21265 21268     1 
21265 21269     1 
21265 21270     1 
21266 21268     1 
21266 21269     1 
21266 21270     1 
21267 21274     1 
21267 21275     1 
21267 21276     1 
21268 21271     1 
21268 21272     1 
21268 21273     1 
21269 21271     1 
21269 21272     1 
21269 21273     1 
21270 21277     1 
21270 21278     1 
21270 21279     1 
21271 21274     1 
21271 21275     1 
21271 21276     1 
21272 21274     1 
21272 21275     1 
21272 21276     1 
21273 21280     1 
21273 21281     1 
21273 21282     1 
21274 21277     1 
21274 21278     1 
21274 21279     1 
21275 21277     1 
21275 21278     1 
21275 21279     1 
21276 21283     1 
21276 21284     1 
21276 21285     1 
21277 21280     1 
21277 21281     1 
21277 21282     1 
21278 21280     1 
21278 21281     1 
21278 21282     1 
21279 21286     1 
21279 21287     1 
21279 21288     1 
21280 21283     1 
21280 21284     1 
21280 21285     1 
21281 21283     1 
21281 21284     1 
21281 21285     1 
21282 21289     1 
21282 21290     1 
21282 21291     1 
21283 21286     1 
21283 21287     1 
21283 21288     1 
21284 21286     1 
21284 21287     1 
21284 21288     1 
21285 21292     1 
21285 21293     1 
21285 21294     1 
21286 21289     1 
21286 21290     1 
21286 21291     1 
21287 21289     1 
21287 21290     1 
21287 21291     1 
21288 21295     1 
21288 21296     1 
21288 21297     1 
21289 21292     1 
21289 21293     1 
21289 21294     1 
21290 21292     1 
21290 21293     1 
21290 21294     1 
21291 21298     1 
21291 21299     1 
21291 21300     1 
21292 21295     1 
21292 21296     1 
21292 21297     1 
21293 21295     1 
21293 21296     1 
21293 21297     1 
21294 21301     1 
21294 21302     1 
21294 21303     1 
21295 21298     1 
21295 21299     1 
21295 21300     1 
21296 21298     1 
21296 21299     1 
21296 21300     1 
21297 21304     1 
21297 21305     1 
21297 21306     1 
21298 21301     1 
21298 21302     1 
21298 21303     1 
21299 21301     1 
21299 21302     1 
21299 21303     1 
21301 21304     1 
21301 21305     1 
21301 21306     1 
21302 21304     1 
21302 21305     1 
21302 21306     1 
21307 21324     1 
21307 21325     1 
21307 21329     1 
21308 21312     1 
21308 21313     1 
21308 21314     1 
21308 21316     1 
21308 21317     1 
21308 21318     1 
21308 21320     1 
21308 21321     1 
21308 21322     1 
21308 21326     1 
21309 21311     1 
21309 21315     1 
21309 21319     1 
21309 21324     1 
21309 21325     1 
21309 21329     1 
21310 21311     1 
21310 21315     1 
21310 21319     1 
21310 21324     1 
21310 21325     1 
21310 21329     1 
21311 21316     1 
21311 21317     1 
21311 21318     1 
21311 21320     1 
21311 21321     1 
21311 21322     1 
21311 21323     1 
21312 21315     1 
21312 21319     1 
21313 21315     1 
21313 21319     1 
21314 21315     1 
21314 21319     1 
21315 21320     1 
21315 21321     1 
21315 21322     1 
21315 21323     1 
21316 21319     1 
21317 21319     1 
21318 21319     1 
21319 21323     1 
21323 21327     1 
21323 21328     1 
21323 21330     1 
21324 21326     1 
21325 21326     1 
21326 21332     1 
21326 21333     1 
21326 21334     1 
21327 21331     1 
21328 21331     1 
21329 21331     1 
21330 21335     1 
21330 21336     1 
21330 21342     1 
21331 21337     1 
21331 21343     1 
21331 21344     1 
21331 21345     1 
21332 21335     1 
21332 21336     1 
21332 21342     1 
21333 21335     1 
21333 21336     1 
21333 21342     1 
21334 21338     1 
21334 21339     1 
21334 21346     1 
21335 21337     1 
21335 21343     1 
21335 21344     1 
21335 21345     1 
21336 21340     1 
21336 21341     1 
21336 21343     1 
21336 21344     1 
21336 21345     1 
21336 21351     1 
21337 21342     1 
21337 21352     1 
21337 21353     1 
21337 21354     1 
21338 21340     1 
21338 21341     1 
21338 21351     1 
21339 21355     1 
21339 21356     1 
21339 21357     1 
21340 21352     1 
21340 21353     1 
21340 21354     1 
21341 21352     1 
21341 21353     1 
21341 21354     1 
21342 21347     1 
21342 21348     1 
21343 21346     1 
21344 21346     1 
21345 21349     1 
21345 21350     1 
21345 21398     1 
21346 21399     1 
21346 21400     1 
21346 21401     1 
21347 21349     1 
21347 21350     1 
21347 21398     1 
21348 21402     1 
21348 21403     1 
21348 21404     1 
21349 21399     1 
21349 21400     1 
21349 21401     1 
21350 21399     1 
21350 21400     1 
21350 21401     1 
21351 21358     1 
21351 21359     1 
21351 21360     1 
21352 21355     1 
21352 21356     1 
21352 21357     1 
21353 21355     1 
21353 21356     1 
21353 21357     1 
21354 21361     1 
21354 21362     1 
21354 21363     1 
21355 21358     1 
21355 21359     1 
21355 21360     1 
21356 21358     1 
21356 21359     1 
21356 21360     1 
21357 21364     1 
21357 21365     1 
21357 21366     1 
21358 21361     1 
21358 21362     1 
21358 21363     1 
21359 21361     1 
21359 21362     1 
21359 21363     1 
21360 21367     1 
21360 21368     1 
21360 21369     1 
21361 21364     1 
21361 21365     1 
21361 21366     1 
21362 21364     1 
21362 21365     1 
21362 21366     1 
21363 21370     1 
21363 21371     1 
21364 21367     1 
21364 21368     1 
21364 21369     1 
21365 21367     1 
21365 21368     1 
21365 21369     1 
21366 21372     1 
21366 21373     1 
21367 21370     1 
21367 21371     1 
21368 21370     1 
21368 21371     1 
21369 21374     1 
21369 21375     1 
21369 21376     1 
21370 21372     1 
21370 21373     1 
21371 21377     1 
21371 21378     1 
21371 21379     1 
21372 21374     1 
21372 21375     1 
21372 21376     1 
21373 21380     1 
21373 21381     1 
21373 21382     1 
21374 21377     1 
21374 21378     1 
21374 21379     1 
21375 21377     1 
21375 21378     1 
21375 21379     1 
21376 21383     1 
21376 21384     1 
21376 21385     1 
21377 21380     1 
21377 21381     1 
21377 21382     1 
21378 21380     1 
21378 21381     1 
21378 21382     1 
21379 21386     1 
21379 21387     1 
21379 21388     1 
21380 21383     1 
21380 21384     1 
21380 21385     1 
21381 21383     1 
21381 21384     1 
21381 21385     1 
21382 21389     1 
21382 21390     1 
21382 21391     1 
21383 21386     1 
21383 21387     1 
21383 21388     1 
21384 21386     1 
21384 21387     1 
21384 21388     1 
21385 21392     1 
21385 21393     1 
21385 21394     1 
21386 21389     1 
21386 21390     1 
21386 21391     1 
21387 21389     1 
21387 21390     1 
21387 21391     1 
21388 21395     1 
21388 21396     1 
21388 21397     1 
21389 21392     1 
21389 21393     1 
21389 21394     1 
21390 21392     1 
21390 21393     1 
21390 21394     1 
21392 21395     1 
21392 21396     1 
21392 21397     1 
21393 21395     1 
21393 21396     1 
21393 21397     1 
21398 21405     1 
21398 21406     1 
21398 21407     1 
21399 21402     1 
21399 21403     1 
21399 21404     1 
21400 21402     1 
21400 21403     1 
21400 21404     1 
21401 21408     1 
21401 21409     1 
21401 21410     1 
21402 21405     1 
21402 21406     1 
21402 21407     1 
21403 21405     1 
21403 21406     1 
21403 21407     1 
21404 21411     1 
21404 21412     1 
21404 21413     1 
21405 21408     1 
21405 21409     1 
21405 21410     1 
21406 21408     1 
21406 21409     1 
21406 21410     1 
21407 21414     1 
21407 21415     1 
21407 21416     1 
21408 21411     1 
21408 21412     1 
21408 21413     1 
21409 21411     1 
21409 21412     1 
21409 21413     1 
21410 21417     1 
21410 21418     1 
21410 21419     1 
21411 21414     1 
21411 21415     1 
21411 21416     1 
21412 21414     1 
21412 21415     1 
21412 21416     1 
21413 21420     1 
21413 21421     1 
21413 21422     1 
21414 21417     1 
21414 21418     1 
21414 21419     1 
21415 21417     1 
21415 21418     1 
21415 21419     1 
21416 21423     1 
21416 21424     1 
21416 21425     1 
21417 21420     1 
21417 21421     1 
21417 21422     1 
21418 21420     1 
21418 21421     1 
21418 21422     1 
21419 21426     1 
21419 21427     1 
21419 21428     1 
21420 21423     1 
21420 21424     1 
21420 21425     1 
21421 21423     1 
21421 21424     1 
21421 21425     1 
21422 21429     1 
21422 21430     1 
21422 21431     1 
21423 21426     1 
21423 21427     1 
21423 21428     1 
21424 21426     1 
21424 21427     1 
21424 21428     1 
21425 21432     1 
21425 21433     1 
21425 21434     1 
21426 21429     1 
21426 21430     1 
21426 21431     1 
21427 21429     1 
21427 21430     1 
21427 21431     1 
21428 21435     1 
21428 21436     1 
21428 21437     1 
21429 21432     1 
21429 21433     1 
21429 21434     1 
21430 21432     1 
21430 21433     1 
21430 21434     1 
21431 21438     1 
21431 21439     1 
21431 21440     1 
21432 21435     1 
21432 21436     1 
21432 21437     1 
21433 21435     1 
21433 21436     1 
21433 21437     1 
21435 21438     1 
21435 21439     1 
21435 21440     1 
21436 21438     1 
21436 21439     1 
21436 21440     1 
21441 21458     1 
21441 21459     1 
21441 21463     1 
21442 21446     1 
21442 21447     1 
21442 21448     1 
21442 21450     1 
21442 21451     1 
21442 21452     1 
21442 21454     1 
21442 21455     1 
21442 21456     1 
21442 21460     1 
21443 21445     1 
21443 21449     1 
21443 21453     1 
21443 21458     1 
21443 21459     1 
21443 21463     1 
21444 21445     1 
21444 21449     1 
21444 21453     1 
21444 21458     1 
21444 21459     1 
21444 21463     1 
21445 21450     1 
21445 21451     1 
21445 21452     1 
21445 21454     1 
21445 21455     1 
21445 21456     1 
21445 21457     1 
21446 21449     1 
21446 21453     1 
21447 21449     1 
21447 21453     1 
21448 21449     1 
21448 21453     1 
21449 21454     1 
21449 21455     1 
21449 21456     1 
21449 21457     1 
21450 21453     1 
21451 21453     1 
21452 21453     1 
21453 21457     1 
21457 21461     1 
21457 21462     1 
21457 21464     1 
21458 21460     1 
21459 21460     1 
21460 21466     1 
21460 21467     1 
21460 21468     1 
21461 21465     1 
21462 21465     1 
21463 21465     1 
21464 21469     1 
21464 21470     1 
21464 21476     1 
21465 21471     1 
21465 21477     1 
21465 21478     1 
21465 21479     1 
21466 21469     1 
21466 21470     1 
21466 21476     1 
21467 21469     1 
21467 21470     1 
21467 21476     1 
21468 21472     1 
21468 21473     1 
21468 21480     1 
21469 21471     1 
21469 21477     1 
21469 21478     1 
21469 21479     1 
21470 21474     1 
21470 21475     1 
21470 21477     1 
21470 21478     1 
21470 21479     1 
21470 21485     1 
21471 21476     1 
21471 21486     1 
21471 21487     1 
21471 21488     1 
21472 21474     1 
21472 21475     1 
21472 21485     1 
21473 21489     1 
21473 21490     1 
21473 21491     1 
21474 21486     1 
21474 21487     1 
21474 21488     1 
21475 21486     1 
21475 21487     1 
21475 21488     1 
21476 21481     1 
21476 21482     1 
21477 21480     1 
21478 21480     1 
21479 21483     1 
21479 21484     1 
21479 21532     1 
21480 21533     1 
21480 21534     1 
21480 21535     1 
21481 21483     1 
21481 21484     1 
21481 21532     1 
21482 21536     1 
21482 21537     1 
21482 21538     1 
21483 21533     1 
21483 21534     1 
21483 21535     1 
21484 21533     1 
21484 21534     1 
21484 21535     1 
21485 21492     1 
21485 21493     1 
21485 21494     1 
21486 21489     1 
21486 21490     1 
21486 21491     1 
21487 21489     1 
21487 21490     1 
21487 21491     1 
21488 21495     1 
21488 21496     1 
21488 21497     1 
21489 21492     1 
21489 21493     1 
21489 21494     1 
21490 21492     1 
21490 21493     1 
21490 21494     1 
21491 21498     1 
21491 21499     1 
21491 21500     1 
21492 21495     1 
21492 21496     1 
21492 21497     1 
21493 21495     1 
21493 21496     1 
21493 21497     1 
21494 21501     1 
21494 21502     1 
21494 21503     1 
21495 21498     1 
21495 21499     1 
21495 21500     1 
21496 21498     1 
21496 21499     1 
21496 21500     1 
21497 21504     1 
21497 21505     1 
21498 21501     1 
21498 21502     1 
21498 21503     1 
21499 21501     1 
21499 21502     1 
21499 21503     1 
21500 21506     1 
21500 21507     1 
21501 21504     1 
21501 21505     1 
21502 21504     1 
21502 21505     1 
21503 21508     1 
21503 21509     1 
21503 21510     1 
21504 21506     1 
21504 21507     1 
21505 21511     1 
21505 21512     1 
21505 21513     1 
21506 21508     1 
21506 21509     1 
21506 21510     1 
21507 21514     1 
21507 21515     1 
21507 21516     1 
21508 21511     1 
21508 21512     1 
21508 21513     1 
21509 21511     1 
21509 21512     1 
21509 21513     1 
21510 21517     1 
21510 21518     1 
21510 21519     1 
21511 21514     1 
21511 21515     1 
21511 21516     1 
21512 21514     1 
21512 21515     1 
21512 21516     1 
21513 21520     1 
21513 21521     1 
21513 21522     1 
21514 21517     1 
21514 21518     1 
21514 21519     1 
21515 21517     1 
21515 21518     1 
21515 21519     1 
21516 21523     1 
21516 21524     1 
21516 21525     1 
21517 21520     1 
21517 21521     1 
21517 21522     1 
21518 21520     1 
21518 21521     1 
21518 21522     1 
21519 21526     1 
21519 21527     1 
21519 21528     1 
21520 21523     1 
21520 21524     1 
21520 21525     1 
21521 21523     1 
21521 21524     1 
21521 21525     1 
21522 21529     1 
21522 21530     1 
21522 21531     1 
21523 21526     1 
21523 21527     1 
21523 21528     1 
21524 21526     1 
21524 21527     1 
21524 21528     1 
21526 21529     1 
21526 21530     1 
21526 21531     1 
21527 21529     1 
21527 21530     1 
21527 21531     1 
21532 21539     1 
21532 21540     1 
21532 21541     1 
21533 21536     1 
21533 21537     1 
21533 21538     1 
21534 21536     1 
21534 21537     1 
21534 21538     1 
21535 21542     1 
21535 21543     1 
21535 21544     1 
21536 21539     1 
21536 21540     1 
21536 21541     1 
21537 21539     1 
21537 21540     1 
21537 21541     1 
21538 21545     1 
21538 21546     1 
21538 21547     1 
21539 21542     1 
21539 21543     1 
21539 21544     1 
21540 21542     1 
21540 21543     1 
21540 21544     1 
21541 21548     1 
21541 21549     1 
21541 21550     1 
21542 21545     1 
21542 21546     1 
21542 21547     1 
21543 21545     1 
21543 21546     1 
21543 21547     1 
21544 21551     1 
21544 21552     1 
21544 21553     1 
21545 21548     1 
21545 21549     1 
21545 21550     1 
21546 21548     1 
21546 21549     1 
21546 21550     1 
21547 21554     1 
21547 21555     1 
21547 21556     1 
21548 21551     1 
21548 21552     1 
21548 21553     1 
21549 21551     1 
21549 21552     1 
21549 21553     1 
21550 21557     1 
21550 21558     1 
21550 21559     1 
21551 21554     1 
21551 21555     1 
21551 21556     1 
21552 21554     1 
21552 21555     1 
21552 21556     1 
21553 21560     1 
21553 21561     1 
21553 21562     1 
21554 21557     1 
21554 21558     1 
21554 21559     1 
21555 21557     1 
21555 21558     1 
21555 21559     1 
21556 21563     1 
21556 21564     1 
21556 21565     1 
21557 21560     1 
21557 21561     1 
21557 21562     1 
21558 21560     1 
21558 21561     1 
21558 21562     1 
21559 21566     1 
21559 21567     1 
21559 21568     1 
21560 21563     1 
21560 21564     1 
21560 21565     1 
21561 21563     1 
21561 21564     1 
21561 21565     1 
21562 21569     1 
21562 21570     1 
21562 21571     1 
21563 21566     1 
21563 21567     1 
21563 21568     1 
21564 21566     1 
21564 21567     1 
21564 21568     1 
21565 21572     1 
21565 21573     1 
21565 21574     1 
21566 21569     1 
21566 21570     1 
21566 21571     1 
21567 21569     1 
21567 21570     1 
21567 21571     1 
21569 21572     1 
21569 21573     1 
21569 21574     1 
21570 21572     1 
21570 21573     1 
21570 21574     1 
21575 21592     1 
21575 21593     1 
21575 21597     1 
21576 21580     1 
21576 21581     1 
21576 21582     1 
21576 21584     1 
21576 21585     1 
21576 21586     1 
21576 21588     1 
21576 21589     1 
21576 21590     1 
21576 21594     1 
21577 21579     1 
21577 21583     1 
21577 21587     1 
21577 21592     1 
21577 21593     1 
21577 21597     1 
21578 21579     1 
21578 21583     1 
21578 21587     1 
21578 21592     1 
21578 21593     1 
21578 21597     1 
21579 21584     1 
21579 21585     1 
21579 21586     1 
21579 21588     1 
21579 21589     1 
21579 21590     1 
21579 21591     1 
21580 21583     1 
21580 21587     1 
21581 21583     1 
21581 21587     1 
21582 21583     1 
21582 21587     1 
21583 21588     1 
21583 21589     1 
21583 21590     1 
21583 21591     1 
21584 21587     1 
21585 21587     1 
21586 21587     1 
21587 21591     1 
21591 21595     1 
21591 21596     1 
21591 21598     1 
21592 21594     1 
21593 21594     1 
21594 21600     1 
21594 21601     1 
21594 21602     1 
21595 21599     1 
21596 21599     1 
21597 21599     1 
21598 21603     1 
21598 21604     1 
21598 21610     1 
21599 21605     1 
21599 21611     1 
21599 21612     1 
21599 21613     1 
21600 21603     1 
21600 21604     1 
21600 21610     1 
21601 21603     1 
21601 21604     1 
21601 21610     1 
21602 21606     1 
21602 21607     1 
21602 21614     1 
21603 21605     1 
21603 21611     1 
21603 21612     1 
21603 21613     1 
21604 21608     1 
21604 21609     1 
21604 21611     1 
21604 21612     1 
21604 21613     1 
21604 21619     1 
21605 21610     1 
21605 21620     1 
21605 21621     1 
21605 21622     1 
21606 21608     1 
21606 21609     1 
21606 21619     1 
21607 21623     1 
21607 21624     1 
21607 21625     1 
21608 21620     1 
21608 21621     1 
21608 21622     1 
21609 21620     1 
21609 21621     1 
21609 21622     1 
21610 21615     1 
21610 21616     1 
21611 21614     1 
21612 21614     1 
21613 21617     1 
21613 21618     1 
21613 21666     1 
21614 21667     1 
21614 21668     1 
21614 21669     1 
21615 21617     1 
21615 21618     1 
21615 21666     1 
21616 21670     1 
21616 21671     1 
21616 21672     1 
21617 21667     1 
21617 21668     1 
21617 21669     1 
21618 21667     1 
21618 21668     1 
21618 21669     1 
21619 21626     1 
21619 21627     1 
21619 21628     1 
21620 21623     1 
21620 21624     1 
21620 21625     1 
21621 21623     1 
21621 21624     1 
21621 21625     1 
21622 21629     1 
21622 21630     1 
21622 21631     1 
21623 21626     1 
21623 21627     1 
21623 21628     1 
21624 21626     1 
21624 21627     1 
21624 21628     1 
21625 21632     1 
21625 21633     1 
21625 21634     1 
21626 21629     1 
21626 21630     1 
21626 21631     1 
21627 21629     1 
21627 21630     1 
21627 21631     1 
21628 21635     1 
21628 21636     1 
21628 21637     1 
21629 21632     1 
21629 21633     1 
21629 21634     1 
21630 21632     1 
21630 21633     1 
21630 21634     1 
21631 21638     1 
21631 21639     1 
21632 21635     1 
21632 21636     1 
21632 21637     1 
21633 21635     1 
21633 21636     1 
21633 21637     1 
21634 21640     1 
21634 21641     1 
21635 21638     1 
21635 21639     1 
21636 21638     1 
21636 21639     1 
21637 21642     1 
21637 21643     1 
21637 21644     1 
21638 21640     1 
21638 21641     1 
21639 21645     1 
21639 21646     1 
21639 21647     1 
21640 21642     1 
21640 21643     1 
21640 21644     1 
21641 21648     1 
21641 21649     1 
21641 21650     1 
21642 21645     1 
21642 21646     1 
21642 21647     1 
21643 21645     1 
21643 21646     1 
21643 21647     1 
21644 21651     1 
21644 21652     1 
21644 21653     1 
21645 21648     1 
21645 21649     1 
21645 21650     1 
21646 21648     1 
21646 21649     1 
21646 21650     1 
21647 21654     1 
21647 21655     1 
21647 21656     1 
21648 21651     1 
21648 21652     1 
21648 21653     1 
21649 21651     1 
21649 21652     1 
21649 21653     1 
21650 21657     1 
21650 21658     1 
21650 21659     1 
21651 21654     1 
21651 21655     1 
21651 21656     1 
21652 21654     1 
21652 21655     1 
21652 21656     1 
21653 21660     1 
21653 21661     1 
21653 21662     1 
21654 21657     1 
21654 21658     1 
21654 21659     1 
21655 21657     1 
21655 21658     1 
21655 21659     1 
21656 21663     1 
21656 21664     1 
21656 21665     1 
21657 21660     1 
21657 21661     1 
21657 21662     1 
21658 21660     1 
21658 21661     1 
21658 21662     1 
21660 21663     1 
21660 21664     1 
21660 21665     1 
21661 21663     1 
21661 21664     1 
21661 21665     1 
21666 21673     1 
21666 21674     1 
21666 21675     1 
21667 21670     1 
21667 21671     1 
21667 21672     1 
21668 21670     1 
21668 21671     1 
21668 21672     1 
21669 21676     1 
21669 21677     1 
21669 21678     1 
21670 21673     1 
21670 21674     1 
21670 21675     1 
21671 21673     1 
21671 21674     1 
21671 21675     1 
21672 21679     1 
21672 21680     1 
21672 21681     1 
21673 21676     1 
21673 21677     1 
21673 21678     1 
21674 21676     1 
21674 21677     1 
21674 21678     1 
21675 21682     1 
21675 21683     1 
21675 21684     1 
21676 21679     1 
21676 21680     1 
21676 21681     1 
21677 21679     1 
21677 21680     1 
21677 21681     1 
21678 21685     1 
21678 21686     1 
21678 21687     1 
21679 21682     1 
21679 21683     1 
21679 21684     1 
21680 21682     1 
21680 21683     1 
21680 21684     1 
21681 21688     1 
21681 21689     1 
21681 21690     1 
21682 21685     1 
21682 21686     1 
21682 21687     1 
21683 21685     1 
21683 21686     1 
21683 21687     1 
21684 21691     1 
21684 21692     1 
21684 21693     1 
21685 21688     1 
21685 21689     1 
21685 21690     1 
21686 21688     1 
21686 21689     1 
21686 21690     1 
21687 21694     1 
21687 21695     1 
21687 21696     1 
21688 21691     1 
21688 21692     1 
21688 21693     1 
21689 21691     1 
21689 21692     1 
21689 21693     1 
21690 21697     1 
21690 21698     1 
21690 21699     1 
21691 21694     1 
21691 21695     1 
21691 21696     1 
21692 21694     1 
21692 21695     1 
21692 21696     1 
21693 21700     1 
21693 21701     1 
21693 21702     1 
21694 21697     1 
21694 21698     1 
21694 21699     1 
21695 21697     1 
21695 21698     1 
21695 21699     1 
21696 21703     1 
21696 21704     1 
21696 21705     1 
21697 21700     1 
21697 21701     1 
21697 21702     1 
21698 21700     1 
21698 21701     1 
21698 21702     1 
21699 21706     1 
21699 21707     1 
21699 21708     1 
21700 21703     1 
21700 21704     1 
21700 21705     1 
21701 21703     1 
21701 21704     1 
21701 21705     1 
21703 21706     1 
21703 21707     1 
21703 21708     1 
21704 21706     1 
21704 21707     1 
21704 21708     1 
21709 21726     1 
21709 21727     1 
21709 21731     1 
21710 21714     1 
21710 21715     1 
21710 21716     1 
21710 21718     1 
21710 21719     1 
21710 21720     1 
21710 21722     1 
21710 21723     1 
21710 21724     1 
21710 21728     1 
21711 21713     1 
21711 21717     1 
21711 21721     1 
21711 21726     1 
21711 21727     1 
21711 21731     1 
21712 21713     1 
21712 21717     1 
21712 21721     1 
21712 21726     1 
21712 21727     1 
21712 21731     1 
21713 21718     1 
21713 21719     1 
21713 21720     1 
21713 21722     1 
21713 21723     1 
21713 21724     1 
21713 21725     1 
21714 21717     1 
21714 21721     1 
21715 21717     1 
21715 21721     1 
21716 21717     1 
21716 21721     1 
21717 21722     1 
21717 21723     1 
21717 21724     1 
21717 21725     1 
21718 21721     1 
21719 21721     1 
21720 21721     1 
21721 21725     1 
21725 21729     1 
21725 21730     1 
21725 21732     1 
21726 21728     1 
21727 21728     1 
21728 21734     1 
21728 21735     1 
21728 21736     1 
21729 21733     1 
21730 21733     1 
21731 21733     1 
21732 21737     1 
21732 21738     1 
21732 21744     1 
21733 21739     1 
21733 21745     1 
21733 21746     1 
21733 21747     1 
21734 21737     1 
21734 21738     1 
21734 21744     1 
21735 21737     1 
21735 21738     1 
21735 21744     1 
21736 21740     1 
21736 21741     1 
21736 21748     1 
21737 21739     1 
21737 21745     1 
21737 21746     1 
21737 21747     1 
21738 21742     1 
21738 21743     1 
21738 21745     1 
21738 21746     1 
21738 21747     1 
21738 21753     1 
21739 21744     1 
21739 21754     1 
21739 21755     1 
21739 21756     1 
21740 21742     1 
21740 21743     1 
21740 21753     1 
21741 21757     1 
21741 21758     1 
21741 21759     1 
21742 21754     1 
21742 21755     1 
21742 21756     1 
21743 21754     1 
21743 21755     1 
21743 21756     1 
21744 21749     1 
21744 21750     1 
21745 21748     1 
21746 21748     1 
21747 21751     1 
21747 21752     1 
21747 21800     1 
21748 21801     1 
21748 21802     1 
21748 21803     1 
21749 21751     1 
21749 21752     1 
21749 21800     1 
21750 21804     1 
21750 21805     1 
21750 21806     1 
21751 21801     1 
21751 21802     1 
21751 21803     1 
21752 21801     1 
21752 21802     1 
21752 21803     1 
21753 21760     1 
21753 21761     1 
21753 21762     1 
21754 21757     1 
21754 21758     1 
21754 21759     1 
21755 21757     1 
21755 21758     1 
21755 21759     1 
21756 21763     1 
21756 21764     1 
21756 21765     1 
21757 21760     1 
21757 21761     1 
21757 21762     1 
21758 21760     1 
21758 21761     1 
21758 21762     1 
21759 21766     1 
21759 21767     1 
21759 21768     1 
21760 21763     1 
21760 21764     1 
21760 21765     1 
21761 21763     1 
21761 21764     1 
21761 21765     1 
21762 21769     1 
21762 21770     1 
21762 21771     1 
21763 21766     1 
21763 21767     1 
21763 21768     1 
21764 21766     1 
21764 21767     1 
21764 21768     1 
21765 21772     1 
21765 21773     1 
21766 21769     1 
21766 21770     1 
21766 21771     1 
21767 21769     1 
21767 21770     1 
21767 21771     1 
21768 21774     1 
21768 21775     1 
21769 21772     1 
21769 21773     1 
21770 21772     1 
21770 21773     1 
21771 21776     1 
21771 21777     1 
21771 21778     1 
21772 21774     1 
21772 21775     1 
21773 21779     1 
21773 21780     1 
21773 21781     1 
21774 21776     1 
21774 21777     1 
21774 21778     1 
21775 21782     1 
21775 21783     1 
21775 21784     1 
21776 21779     1 
21776 21780     1 
21776 21781     1 
21777 21779     1 
21777 21780     1 
21777 21781     1 
21778 21785     1 
21778 21786     1 
21778 21787     1 
21779 21782     1 
21779 21783     1 
21779 21784     1 
21780 21782     1 
21780 21783     1 
21780 21784     1 
21781 21788     1 
21781 21789     1 
21781 21790     1 
21782 21785     1 
21782 21786     1 
21782 21787     1 
21783 21785     1 
21783 21786     1 
21783 21787     1 
21784 21791     1 
21784 21792     1 
21784 21793     1 
21785 21788     1 
21785 21789     1 
21785 21790     1 
21786 21788     1 
21786 21789     1 
21786 21790     1 
21787 21794     1 
21787 21795     1 
21787 21796     1 
21788 21791     1 
21788 21792     1 
21788 21793     1 
21789 21791     1 
21789 21792     1 
21789 21793     1 
21790 21797     1 
21790 21798     1 
21790 21799     1 
21791 21794     1 
21791 21795     1 
21791 21796     1 
21792 21794     1 
21792 21795     1 
21792 21796     1 
21794 21797     1 
21794 21798     1 
21794 21799     1 
21795 21797     1 
21795 21798     1 
21795 21799     1 
21800 21807     1 
21800 21808     1 
21800 21809     1 
21801 21804     1 
21801 21805     1 
21801 21806     1 
21802 21804     1 
21802 21805     1 
21802 21806     1 
21803 21810     1 
21803 21811     1 
21803 21812     1 
21804 21807     1 
21804 21808     1 
21804 21809     1 
21805 21807     1 
21805 21808     1 
21805 21809     1 
21806 21813     1 
21806 21814     1 
21806 21815     1 
21807 21810     1 
21807 21811     1 
21807 21812     1 
21808 21810     1 
21808 21811     1 
21808 21812     1 
21809 21816     1 
21809 21817     1 
21809 21818     1 
21810 21813     1 
21810 21814     1 
21810 21815     1 
21811 21813     1 
21811 21814     1 
21811 21815     1 
21812 21819     1 
21812 21820     1 
21812 21821     1 
21813 21816     1 
21813 21817     1 
21813 21818     1 
21814 21816     1 
21814 21817     1 
21814 21818     1 
21815 21822     1 
21815 21823     1 
21815 21824     1 
21816 21819     1 
21816 21820     1 
21816 21821     1 
21817 21819     1 
21817 21820     1 
21817 21821     1 
21818 21825     1 
21818 21826     1 
21818 21827     1 
21819 21822     1 
21819 21823     1 
21819 21824     1 
21820 21822     1 
21820 21823     1 
21820 21824     1 
21821 21828     1 
21821 21829     1 
21821 21830     1 
21822 21825     1 
21822 21826     1 
21822 21827     1 
21823 21825     1 
21823 21826     1 
21823 21827     1 
21824 21831     1 
21824 21832     1 
21824 21833     1 
21825 21828     1 
21825 21829     1 
21825 21830     1 
21826 21828     1 
21826 21829     1 
21826 21830     1 
21827 21834     1 
21827 21835     1 
21827 21836     1 
21828 21831     1 
21828 21832     1 
21828 21833     1 
21829 21831     1 
21829 21832     1 
21829 21833     1 
21830 21837     1 
21830 21838     1 
21830 21839     1 
21831 21834     1 
21831 21835     1 
21831 21836     1 
21832 21834     1 
21832 21835     1 
21832 21836     1 
21833 21840     1 
21833 21841     1 
21833 21842     1 
21834 21837     1 
21834 21838     1 
21834 21839     1 
21835 21837     1 
21835 21838     1 
21835 21839     1 
21837 21840     1 
21837 21841     1 
21837 21842     1 
21838 21840     1 
21838 21841     1 
21838 21842     1 
21843 21860     1 
21843 21861     1 
21843 21865     1 
21844 21848     1 
21844 21849     1 
21844 21850     1 
21844 21852     1 
21844 21853     1 
21844 21854     1 
21844 21856     1 
21844 21857     1 
21844 21858     1 
21844 21862     1 
21845 21847     1 
21845 21851     1 
21845 21855     1 
21845 21860     1 
21845 21861     1 
21845 21865     1 
21846 21847     1 
21846 21851     1 
21846 21855     1 
21846 21860     1 
21846 21861     1 
21846 21865     1 
21847 21852     1 
21847 21853     1 
21847 21854     1 
21847 21856     1 
21847 21857     1 
21847 21858     1 
21847 21859     1 
21848 21851     1 
21848 21855     1 
21849 21851     1 
21849 21855     1 
21850 21851     1 
21850 21855     1 
21851 21856     1 
21851 21857     1 
21851 21858     1 
21851 21859     1 
21852 21855     1 
21853 21855     1 
21854 21855     1 
21855 21859     1 
21859 21863     1 
21859 21864     1 
21859 21866     1 
21860 21862     1 
21861 21862     1 
21862 21868     1 
21862 21869     1 
21862 21870     1 
21863 21867     1 
21864 21867     1 
21865 21867     1 
21866 21871     1 
21866 21872     1 
21866 21878     1 
21867 21873     1 
21867 21879     1 
21867 21880     1 
21867 21881     1 
21868 21871     1 
21868 21872     1 
21868 21878     1 
21869 21871     1 
21869 21872     1 
21869 21878     1 
21870 21874     1 
21870 21875     1 
21870 21882     1 
21871 21873     1 
21871 21879     1 
21871 21880     1 
21871 21881     1 
21872 21876     1 
21872 21877     1 
21872 21879     1 
21872 21880     1 
21872 21881     1 
21872 21887     1 
21873 21878     1 
21873 21888     1 
21873 21889     1 
21873 21890     1 
21874 21876     1 
21874 21877     1 
21874 21887     1 
21875 21891     1 
21875 21892     1 
21875 21893     1 
21876 21888     1 
21876 21889     1 
21876 21890     1 
21877 21888     1 
21877 21889     1 
21877 21890     1 
21878 21883     1 
21878 21884     1 
21879 21882     1 
21880 21882     1 
21881 21885     1 
21881 21886     1 
21881 21934     1 
21882 21935     1 
21882 21936     1 
21882 21937     1 
21883 21885     1 
21883 21886     1 
21883 21934     1 
21884 21938     1 
21884 21939     1 
21884 21940     1 
21885 21935     1 
21885 21936     1 
21885 21937     1 
21886 21935     1 
21886 21936     1 
21886 21937     1 
21887 21894     1 
21887 21895     1 
21887 21896     1 
21888 21891     1 
21888 21892     1 
21888 21893     1 
21889 21891     1 
21889 21892     1 
21889 21893     1 
21890 21897     1 
21890 21898     1 
21890 21899     1 
21891 21894     1 
21891 21895     1 
21891 21896     1 
21892 21894     1 
21892 21895     1 
21892 21896     1 
21893 21900     1 
21893 21901     1 
21893 21902     1 
21894 21897     1 
21894 21898     1 
21894 21899     1 
21895 21897     1 
21895 21898     1 
21895 21899     1 
21896 21903     1 
21896 21904     1 
21896 21905     1 
21897 21900     1 
21897 21901     1 
21897 21902     1 
21898 21900     1 
21898 21901     1 
21898 21902     1 
21899 21906     1 
21899 21907     1 
21900 21903     1 
21900 21904     1 
21900 21905     1 
21901 21903     1 
21901 21904     1 
21901 21905     1 
21902 21908     1 
21902 21909     1 
21903 21906     1 
21903 21907     1 
21904 21906     1 
21904 21907     1 
21905 21910     1 
21905 21911     1 
21905 21912     1 
21906 21908     1 
21906 21909     1 
21907 21913     1 
21907 21914     1 
21907 21915     1 
21908 21910     1 
21908 21911     1 
21908 21912     1 
21909 21916     1 
21909 21917     1 
21909 21918     1 
21910 21913     1 
21910 21914     1 
21910 21915     1 
21911 21913     1 
21911 21914     1 
21911 21915     1 
21912 21919     1 
21912 21920     1 
21912 21921     1 
21913 21916     1 
21913 21917     1 
21913 21918     1 
21914 21916     1 
21914 21917     1 
21914 21918     1 
21915 21922     1 
21915 21923     1 
21915 21924     1 
21916 21919     1 
21916 21920     1 
21916 21921     1 
21917 21919     1 
21917 21920     1 
21917 21921     1 
21918 21925     1 
21918 21926     1 
21918 21927     1 
21919 21922     1 
21919 21923     1 
21919 21924     1 
21920 21922     1 
21920 21923     1 
21920 21924     1 
21921 21928     1 
21921 21929     1 
21921 21930     1 
21922 21925     1 
21922 21926     1 
21922 21927     1 
21923 21925     1 
21923 21926     1 
21923 21927     1 
21924 21931     1 
21924 21932     1 
21924 21933     1 
21925 21928     1 
21925 21929     1 
21925 21930     1 
21926 21928     1 
21926 21929     1 
21926 21930     1 
21928 21931     1 
21928 21932     1 
21928 21933     1 
21929 21931     1 
21929 21932     1 
21929 21933     1 
21934 21941     1 
21934 21942     1 
21934 21943     1 
21935 21938     1 
21935 21939     1 
21935 21940     1 
21936 21938     1 
21936 21939     1 
21936 21940     1 
21937 21944     1 
21937 21945     1 
21937 21946     1 
21938 21941     1 
21938 21942     1 
21938 21943     1 
21939 21941     1 
21939 21942     1 
21939 21943     1 
21940 21947     1 
21940 21948     1 
21940 21949     1 
21941 21944     1 
21941 21945     1 
21941 21946     1 
21942 21944     1 
21942 21945     1 
21942 21946     1 
21943 21950     1 
21943 21951     1 
21943 21952     1 
21944 21947     1 
21944 21948     1 
21944 21949     1 
21945 21947     1 
21945 21948     1 
21945 21949     1 
21946 21953     1 
21946 21954     1 
21946 21955     1 
21947 21950     1 
21947 21951     1 
21947 21952     1 
21948 21950     1 
21948 21951     1 
21948 21952     1 
21949 21956     1 
21949 21957     1 
21949 21958     1 
21950 21953     1 
21950 21954     1 
21950 21955     1 
21951 21953     1 
21951 21954     1 
21951 21955     1 
21952 21959     1 
21952 21960     1 
21952 21961     1 
21953 21956     1 
21953 21957     1 
21953 21958     1 
21954 21956     1 
21954 21957     1 
21954 21958     1 
21955 21962     1 
21955 21963     1 
21955 21964     1 
21956 21959     1 
21956 21960     1 
21956 21961     1 
21957 21959     1 
21957 21960     1 
21957 21961     1 
21958 21965     1 
21958 21966     1 
21958 21967     1 
21959 21962     1 
21959 21963     1 
21959 21964     1 
21960 21962     1 
21960 21963     1 
21960 21964     1 
21961 21968     1 
21961 21969     1 
21961 21970     1 
21962 21965     1 
21962 21966     1 
21962 21967     1 
21963 21965     1 
21963 21966     1 
21963 21967     1 
21964 21971     1 
21964 21972     1 
21964 21973     1 
21965 21968     1 
21965 21969     1 
21965 21970     1 
21966 21968     1 
21966 21969     1 
21966 21970     1 
21967 21974     1 
21967 21975     1 
21967 21976     1 
21968 21971     1 
21968 21972     1 
21968 21973     1 
21969 21971     1 
21969 21972     1 
21969 21973     1 
21971 21974     1 
21971 21975     1 
21971 21976     1 
21972 21974     1 
21972 21975     1 
21972 21976     1 
21977 21994     1 
21977 21995     1 
21977 21999     1 
21978 21982     1 
21978 21983     1 
21978 21984     1 
21978 21986     1 
21978 21987     1 
21978 21988     1 
21978 21990     1 
21978 21991     1 
21978 21992     1 
21978 21996     1 
21979 21981     1 
21979 21985     1 
21979 21989     1 
21979 21994     1 
21979 21995     1 
21979 21999     1 
21980 21981     1 
21980 21985     1 
21980 21989     1 
21980 21994     1 
21980 21995     1 
21980 21999     1 
21981 21986     1 
21981 21987     1 
21981 21988     1 
21981 21990     1 
21981 21991     1 
21981 21992     1 
21981 21993     1 
21982 21985     1 
21982 21989     1 
21983 21985     1 
21983 21989     1 
21984 21985     1 
21984 21989     1 
21985 21990     1 
21985 21991     1 
21985 21992     1 
21985 21993     1 
21986 21989     1 
21987 21989     1 
21988 21989     1 
21989 21993     1 
21993 21997     1 
21993 21998     1 
21993 22000     1 
21994 21996     1 
21995 21996     1 
21996 22002     1 
21996 22003     1 
21996 22004     1 
21997 22001     1 
21998 22001     1 
21999 22001     1 
22000 22005     1 
22000 22006     1 
22000 22012     1 
22001 22007     1 
22001 22013     1 
22001 22014     1 
22001 22015     1 
22002 22005     1 
22002 22006     1 
22002 22012     1 
22003 22005     1 
22003 22006     1 
22003 22012     1 
22004 22008     1 
22004 22009     1 
22004 22016     1 
22005 22007     1 
22005 22013     1 
22005 22014     1 
22005 22015     1 
22006 22010     1 
22006 22011     1 
22006 22013     1 
22006 22014     1 
22006 22015     1 
22006 22021     1 
22007 22012     1 
22007 22022     1 
22007 22023     1 
22007 22024     1 
22008 22010     1 
22008 22011     1 
22008 22021     1 
22009 22025     1 
22009 22026     1 
22009 22027     1 
22010 22022     1 
22010 22023     1 
22010 22024     1 
22011 22022     1 
22011 22023     1 
22011 22024     1 
22012 22017     1 
22012 22018     1 
22013 22016     1 
22014 22016     1 
22015 22019     1 
22015 22020     1 
22015 22068     1 
22016 22069     1 
22016 22070     1 
22016 22071     1 
22017 22019     1 
22017 22020     1 
22017 22068     1 
22018 22072     1 
22018 22073     1 
22018 22074     1 
22019 22069     1 
22019 22070     1 
22019 22071     1 
22020 22069     1 
22020 22070     1 
22020 22071     1 
22021 22028     1 
22021 22029     1 
22021 22030     1 
22022 22025     1 
22022 22026     1 
22022 22027     1 
22023 22025     1 
22023 22026     1 
22023 22027     1 
22024 22031     1 
22024 22032     1 
22024 22033     1 
22025 22028     1 
22025 22029     1 
22025 22030     1 
22026 22028     1 
22026 22029     1 
22026 22030     1 
22027 22034     1 
22027 22035     1 
22027 22036     1 
22028 22031     1 
22028 22032     1 
22028 22033     1 
22029 22031     1 
22029 22032     1 
22029 22033     1 
22030 22037     1 
22030 22038     1 
22030 22039     1 
22031 22034     1 
22031 22035     1 
22031 22036     1 
22032 22034     1 
22032 22035     1 
22032 22036     1 
22033 22040     1 
22033 22041     1 
22034 22037     1 
22034 22038     1 
22034 22039     1 
22035 22037     1 
22035 22038     1 
22035 22039     1 
22036 22042     1 
22036 22043     1 
22037 22040     1 
22037 22041     1 
22038 22040     1 
22038 22041     1 
22039 22044     1 
22039 22045     1 
22039 22046     1 
22040 22042     1 
22040 22043     1 
22041 22047     1 
22041 22048     1 
22041 22049     1 
22042 22044     1 
22042 22045     1 
22042 22046     1 
22043 22050     1 
22043 22051     1 
22043 22052     1 
22044 22047     1 
22044 22048     1 
22044 22049     1 
22045 22047     1 
22045 22048     1 
22045 22049     1 
22046 22053     1 
22046 22054     1 
22046 22055     1 
22047 22050     1 
22047 22051     1 
22047 22052     1 
22048 22050     1 
22048 22051     1 
22048 22052     1 
22049 22056     1 
22049 22057     1 
22049 22058     1 
22050 22053     1 
22050 22054     1 
22050 22055     1 
22051 22053     1 
22051 22054     1 
22051 22055     1 
22052 22059     1 
22052 22060     1 
22052 22061     1 
22053 22056     1 
22053 22057     1 
22053 22058     1 
22054 22056     1 
22054 22057     1 
22054 22058     1 
22055 22062     1 
22055 22063     1 
22055 22064     1 
22056 22059     1 
22056 22060     1 
22056 22061     1 
22057 22059     1 
22057 22060     1 
22057 22061     1 
22058 22065     1 
22058 22066     1 
22058 22067     1 
22059 22062     1 
22059 22063     1 
22059 22064     1 
22060 22062     1 
22060 22063     1 
22060 22064     1 
22062 22065     1 
22062 22066     1 
22062 22067     1 
22063 22065     1 
22063 22066     1 
22063 22067     1 
22068 22075     1 
22068 22076     1 
22068 22077     1 
22069 22072     1 
22069 22073     1 
22069 22074     1 
22070 22072     1 
22070 22073     1 
22070 22074     1 
22071 22078     1 
22071 22079     1 
22071 22080     1 
22072 22075     1 
22072 22076     1 
22072 22077     1 
22073 22075     1 
22073 22076     1 
22073 22077     1 
22074 22081     1 
22074 22082     1 
22074 22083     1 
22075 22078     1 
22075 22079     1 
22075 22080     1 
22076 22078     1 
22076 22079     1 
22076 22080     1 
22077 22084     1 
22077 22085     1 
22077 22086     1 
22078 22081     1 
22078 22082     1 
22078 22083     1 
22079 22081     1 
22079 22082     1 
22079 22083     1 
22080 22087     1 
22080 22088     1 
22080 22089     1 
22081 22084     1 
22081 22085     1 
22081 22086     1 
22082 22084     1 
22082 22085     1 
22082 22086     1 
22083 22090     1 
22083 22091     1 
22083 22092     1 
22084 22087     1 
22084 22088     1 
22084 22089     1 
22085 22087     1 
22085 22088     1 
22085 22089     1 
22086 22093     1 
22086 22094     1 
22086 22095     1 
22087 22090     1 
22087 22091     1 
22087 22092     1 
22088 22090     1 
22088 22091     1 
22088 22092     1 
22089 22096     1 
22089 22097     1 
22089 22098     1 
22090 22093     1 
22090 22094     1 
22090 22095     1 
22091 22093     1 
22091 22094     1 
22091 22095     1 
22092 22099     1 
22092 22100     1 
22092 22101     1 
22093 22096     1 
22093 22097     1 
22093 22098     1 
22094 22096     1 
22094 22097     1 
22094 22098     1 
22095 22102     1 
22095 22103     1 
22095 22104     1 
22096 22099     1 
22096 22100     1 
22096 22101     1 
22097 22099     1 
22097 22100     1 
22097 22101     1 
22098 22105     1 
22098 22106     1 
22098 22107     1 
22099 22102     1 
22099 22103     1 
22099 22104     1 
22100 22102     1 
22100 22103     1 
22100 22104     1 
22101 22108     1 
22101 22109     1 
22101 22110     1 
22102 22105     1 
22102 22106     1 
22102 22107     1 
22103 22105     1 
22103 22106     1 
22103 22107     1 
22105 22108     1 
22105 22109     1 
22105 22110     1 
22106 22108     1 
22106 22109     1 
22106 22110     1 
22111 22128     1 
22111 22129     1 
22111 22133     1 
22112 22116     1 
22112 22117     1 
22112 22118     1 
22112 22120     1 
22112 22121     1 
22112 22122     1 
22112 22124     1 
22112 22125     1 
22112 22126     1 
22112 22130     1 
22113 22115     1 
22113 22119     1 
22113 22123     1 
22113 22128     1 
22113 22129     1 
22113 22133     1 
22114 22115     1 
22114 22119     1 
22114 22123     1 
22114 22128     1 
22114 22129     1 
22114 22133     1 
22115 22120     1 
22115 22121     1 
22115 22122     1 
22115 22124     1 
22115 22125     1 
22115 22126     1 
22115 22127     1 
22116 22119     1 
22116 22123     1 
22117 22119     1 
22117 22123     1 
22118 22119     1 
22118 22123     1 
22119 22124     1 
22119 22125     1 
22119 22126     1 
22119 22127     1 
22120 22123     1 
22121 22123     1 
22122 22123     1 
22123 22127     1 
22127 22131     1 
22127 22132     1 
22127 22134     1 
22128 22130     1 
22129 22130     1 
22130 22136     1 
22130 22137     1 
22130 22138     1 
22131 22135     1 
22132 22135     1 
22133 22135     1 
22134 22139     1 
22134 22140     1 
22134 22146     1 
22135 22141     1 
22135 22147     1 
22135 22148     1 
22135 22149     1 
22136 22139     1 
22136 22140     1 
22136 22146     1 
22137 22139     1 
22137 22140     1 
22137 22146     1 
22138 22142     1 
22138 22143     1 
22138 22150     1 
22139 22141     1 
22139 22147     1 
22139 22148     1 
22139 22149     1 
22140 22144     1 
22140 22145     1 
22140 22147     1 
22140 22148     1 
22140 22149     1 
22140 22155     1 
22141 22146     1 
22141 22156     1 
22141 22157     1 
22141 22158     1 
22142 22144     1 
22142 22145     1 
22142 22155     1 
22143 22159     1 
22143 22160     1 
22143 22161     1 
22144 22156     1 
22144 22157     1 
22144 22158     1 
22145 22156     1 
22145 22157     1 
22145 22158     1 
22146 22151     1 
22146 22152     1 
22147 22150     1 
22148 22150     1 
22149 22153     1 
22149 22154     1 
22149 22202     1 
22150 22203     1 
22150 22204     1 
22150 22205     1 
22151 22153     1 
22151 22154     1 
22151 22202     1 
22152 22206     1 
22152 22207     1 
22152 22208     1 
22153 22203     1 
22153 22204     1 
22153 22205     1 
22154 22203     1 
22154 22204     1 
22154 22205     1 
22155 22162     1 
22155 22163     1 
22155 22164     1 
22156 22159     1 
22156 22160     1 
22156 22161     1 
22157 22159     1 
22157 22160     1 
22157 22161     1 
22158 22165     1 
22158 22166     1 
22158 22167     1 
22159 22162     1 
22159 22163     1 
22159 22164     1 
22160 22162     1 
22160 22163     1 
22160 22164     1 
22161 22168     1 
22161 22169     1 
22161 22170     1 
22162 22165     1 
22162 22166     1 
22162 22167     1 
22163 22165     1 
22163 22166     1 
22163 22167     1 
22164 22171     1 
22164 22172     1 
22164 22173     1 
22165 22168     1 
22165 22169     1 
22165 22170     1 
22166 22168     1 
22166 22169     1 
22166 22170     1 
22167 22174     1 
22167 22175     1 
22168 22171     1 
22168 22172     1 
22168 22173     1 
22169 22171     1 
22169 22172     1 
22169 22173     1 
22170 22176     1 
22170 22177     1 
22171 22174     1 
22171 22175     1 
22172 22174     1 
22172 22175     1 
22173 22178     1 
22173 22179     1 
22173 22180     1 
22174 22176     1 
22174 22177     1 
22175 22181     1 
22175 22182     1 
22175 22183     1 
22176 22178     1 
22176 22179     1 
22176 22180     1 
22177 22184     1 
22177 22185     1 
22177 22186     1 
22178 22181     1 
22178 22182     1 
22178 22183     1 
22179 22181     1 
22179 22182     1 
22179 22183     1 
22180 22187     1 
22180 22188     1 
22180 22189     1 
22181 22184     1 
22181 22185     1 
22181 22186     1 
22182 22184     1 
22182 22185     1 
22182 22186     1 
22183 22190     1 
22183 22191     1 
22183 22192     1 
22184 22187     1 
22184 22188     1 
22184 22189     1 
22185 22187     1 
22185 22188     1 
22185 22189     1 
22186 22193     1 
22186 22194     1 
22186 22195     1 
22187 22190     1 
22187 22191     1 
22187 22192     1 
22188 22190     1 
22188 22191     1 
22188 22192     1 
22189 22196     1 
22189 22197     1 
22189 22198     1 
22190 22193     1 
22190 22194     1 
22190 22195     1 
22191 22193     1 
22191 22194     1 
22191 22195     1 
22192 22199     1 
22192 22200     1 
22192 22201     1 
22193 22196     1 
22193 22197     1 
22193 22198     1 
22194 22196     1 
22194 22197     1 
22194 22198     1 
22196 22199     1 
22196 22200     1 
22196 22201     1 
22197 22199     1 
22197 22200     1 
22197 22201     1 
22202 22209     1 
22202 22210     1 
22202 22211     1 
22203 22206     1 
22203 22207     1 
22203 22208     1 
22204 22206     1 
22204 22207     1 
22204 22208     1 
22205 22212     1 
22205 22213     1 
22205 22214     1 
22206 22209     1 
22206 22210     1 
22206 22211     1 
22207 22209     1 
22207 22210     1 
22207 22211     1 
22208 22215     1 
22208 22216     1 
22208 22217     1 
22209 22212     1 
22209 22213     1 
22209 22214     1 
22210 22212     1 
22210 22213     1 
22210 22214     1 
22211 22218     1 
22211 22219     1 
22211 22220     1 
22212 22215     1 
22212 22216     1 
22212 22217     1 
22213 22215     1 
22213 22216     1 
22213 22217     1 
22214 22221     1 
22214 22222     1 
22214 22223     1 
22215 22218     1 
22215 22219     1 
22215 22220     1 
22216 22218     1 
22216 22219     1 
22216 22220     1 
22217 22224     1 
22217 22225     1 
22217 22226     1 
22218 22221     1 
22218 22222     1 
22218 22223     1 
22219 22221     1 
22219 22222     1 
22219 22223     1 
22220 22227     1 
22220 22228     1 
22220 22229     1 
22221 22224     1 
22221 22225     1 
22221 22226     1 
22222 22224     1 
22222 22225     1 
22222 22226     1 
22223 22230     1 
22223 22231     1 
22223 22232     1 
22224 22227     1 
22224 22228     1 
22224 22229     1 
22225 22227     1 
22225 22228     1 
22225 22229     1 
22226 22233     1 
22226 22234     1 
22226 22235     1 
22227 22230     1 
22227 22231     1 
22227 22232     1 
22228 22230     1 
22228 22231     1 
22228 22232     1 
22229 22236     1 
22229 22237     1 
22229 22238     1 
22230 22233     1 
22230 22234     1 
22230 22235     1 
22231 22233     1 
22231 22234     1 
22231 22235     1 
22232 22239     1 
22232 22240     1 
22232 22241     1 
22233 22236     1 
22233 22237     1 
22233 22238     1 
22234 22236     1 
22234 22237     1 
22234 22238     1 
22235 22242     1 
22235 22243     1 
22235 22244     1 
22236 22239     1 
22236 22240     1 
22236 22241     1 
22237 22239     1 
22237 22240     1 
22237 22241     1 
22239 22242     1 
22239 22243     1 
22239 22244     1 
22240 22242     1 
22240 22243     1 
22240 22244     1 
22245 22262     1 
22245 22263     1 
22245 22267     1 
22246 22250     1 
22246 22251     1 
22246 22252     1 
22246 22254     1 
22246 22255     1 
22246 22256     1 
22246 22258     1 
22246 22259     1 
22246 22260     1 
22246 22264     1 
22247 22249     1 
22247 22253     1 
22247 22257     1 
22247 22262     1 
22247 22263     1 
22247 22267     1 
22248 22249     1 
22248 22253     1 
22248 22257     1 
22248 22262     1 
22248 22263     1 
22248 22267     1 
22249 22254     1 
22249 22255     1 
22249 22256     1 
22249 22258     1 
22249 22259     1 
22249 22260     1 
22249 22261     1 
22250 22253     1 
22250 22257     1 
22251 22253     1 
22251 22257     1 
22252 22253     1 
22252 22257     1 
22253 22258     1 
22253 22259     1 
22253 22260     1 
22253 22261     1 
22254 22257     1 
22255 22257     1 
22256 22257     1 
22257 22261     1 
22261 22265     1 
22261 22266     1 
22261 22268     1 
22262 22264     1 
22263 22264     1 
22264 22270     1 
22264 22271     1 
22264 22272     1 
22265 22269     1 
22266 22269     1 
22267 22269     1 
22268 22273     1 
22268 22274     1 
22268 22280     1 
22269 22275     1 
22269 22281     1 
22269 22282     1 
22269 22283     1 
22270 22273     1 
22270 22274     1 
22270 22280     1 
22271 22273     1 
22271 22274     1 
22271 22280     1 
22272 22276     1 
22272 22277     1 
22272 22284     1 
22273 22275     1 
22273 22281     1 
22273 22282     1 
22273 22283     1 
22274 22278     1 
22274 22279     1 
22274 22281     1 
22274 22282     1 
22274 22283     1 
22274 22289     1 
22275 22280     1 
22275 22290     1 
22275 22291     1 
22275 22292     1 
22276 22278     1 
22276 22279     1 
22276 22289     1 
22277 22293     1 
22277 22294     1 
22277 22295     1 
22278 22290     1 
22278 22291     1 
22278 22292     1 
22279 22290     1 
22279 22291     1 
22279 22292     1 
22280 22285     1 
22280 22286     1 
22281 22284     1 
22282 22284     1 
22283 22287     1 
22283 22288     1 
22283 22336     1 
22284 22337     1 
22284 22338     1 
22284 22339     1 
22285 22287     1 
22285 22288     1 
22285 22336     1 
22286 22340     1 
22286 22341     1 
22286 22342     1 
22287 22337     1 
22287 22338     1 
22287 22339     1 
22288 22337     1 
22288 22338     1 
22288 22339     1 
22289 22296     1 
22289 22297     1 
22289 22298     1 
22290 22293     1 
22290 22294     1 
22290 22295     1 
22291 22293     1 
22291 22294     1 
22291 22295     1 
22292 22299     1 
22292 22300     1 
22292 22301     1 
22293 22296     1 
22293 22297     1 
22293 22298     1 
22294 22296     1 
22294 22297     1 
22294 22298     1 
22295 22302     1 
22295 22303     1 
22295 22304     1 
22296 22299     1 
22296 22300     1 
22296 22301     1 
22297 22299     1 
22297 22300     1 
22297 22301     1 
22298 22305     1 
22298 22306     1 
22298 22307     1 
22299 22302     1 
22299 22303     1 
22299 22304     1 
22300 22302     1 
22300 22303     1 
22300 22304     1 
22301 22308     1 
22301 22309     1 
22302 22305     1 
22302 22306     1 
22302 22307     1 
22303 22305     1 
22303 22306     1 
22303 22307     1 
22304 22310     1 
22304 22311     1 
22305 22308     1 
22305 22309     1 
22306 22308     1 
22306 22309     1 
22307 22312     1 
22307 22313     1 
22307 22314     1 
22308 22310     1 
22308 22311     1 
22309 22315     1 
22309 22316     1 
22309 22317     1 
22310 22312     1 
22310 22313     1 
22310 22314     1 
22311 22318     1 
22311 22319     1 
22311 22320     1 
22312 22315     1 
22312 22316     1 
22312 22317     1 
22313 22315     1 
22313 22316     1 
22313 22317     1 
22314 22321     1 
22314 22322     1 
22314 22323     1 
22315 22318     1 
22315 22319     1 
22315 22320     1 
22316 22318     1 
22316 22319     1 
22316 22320     1 
22317 22324     1 
22317 22325     1 
22317 22326     1 
22318 22321     1 
22318 22322     1 
22318 22323     1 
22319 22321     1 
22319 22322     1 
22319 22323     1 
22320 22327     1 
22320 22328     1 
22320 22329     1 
22321 22324     1 
22321 22325     1 
22321 22326     1 
22322 22324     1 
22322 22325     1 
22322 22326     1 
22323 22330     1 
22323 22331     1 
22323 22332     1 
22324 22327     1 
22324 22328     1 
22324 22329     1 
22325 22327     1 
22325 22328     1 
22325 22329     1 
22326 22333     1 
22326 22334     1 
22326 22335     1 
22327 22330     1 
22327 22331     1 
22327 22332     1 
22328 22330     1 
22328 22331     1 
22328 22332     1 
22330 22333     1 
22330 22334     1 
22330 22335     1 
22331 22333     1 
22331 22334     1 
22331 22335     1 
22336 22343     1 
22336 22344     1 
22336 22345     1 
22337 22340     1 
22337 22341     1 
22337 22342     1 
22338 22340     1 
22338 22341     1 
22338 22342     1 
22339 22346     1 
22339 22347     1 
22339 22348     1 
22340 22343     1 
22340 22344     1 
22340 22345     1 
22341 22343     1 
22341 22344     1 
22341 22345     1 
22342 22349     1 
22342 22350     1 
22342 22351     1 
22343 22346     1 
22343 22347     1 
22343 22348     1 
22344 22346     1 
22344 22347     1 
22344 22348     1 
22345 22352     1 
22345 22353     1 
22345 22354     1 
22346 22349     1 
22346 22350     1 
22346 22351     1 
22347 22349     1 
22347 22350     1 
22347 22351     1 
22348 22355     1 
22348 22356     1 
22348 22357     1 
22349 22352     1 
22349 22353     1 
22349 22354     1 
22350 22352     1 
22350 22353     1 
22350 22354     1 
22351 22358     1 
22351 22359     1 
22351 22360     1 
22352 22355     1 
22352 22356     1 
22352 22357     1 
22353 22355     1 
22353 22356     1 
22353 22357     1 
22354 22361     1 
22354 22362     1 
22354 22363     1 
22355 22358     1 
22355 22359     1 
22355 22360     1 
22356 22358     1 
22356 22359     1 
22356 22360     1 
22357 22364     1 
22357 22365     1 
22357 22366     1 
22358 22361     1 
22358 22362     1 
22358 22363     1 
22359 22361     1 
22359 22362     1 
22359 22363     1 
22360 22367     1 
22360 22368     1 
22360 22369     1 
22361 22364     1 
22361 22365     1 
22361 22366     1 
22362 22364     1 
22362 22365     1 
22362 22366     1 
22363 22370     1 
22363 22371     1 
22363 22372     1 
22364 22367     1 
22364 22368     1 
22364 22369     1 
22365 22367     1 
22365 22368     1 
22365 22369     1 
22366 22373     1 
22366 22374     1 
22366 22375     1 
22367 22370     1 
22367 22371     1 
22367 22372     1 
22368 22370     1 
22368 22371     1 
22368 22372     1 
22369 22376     1 
22369 22377     1 
22369 22378     1 
22370 22373     1 
22370 22374     1 
22370 22375     1 
22371 22373     1 
22371 22374     1 
22371 22375     1 
22373 22376     1 
22373 22377     1 
22373 22378     1 
22374 22376     1 
22374 22377     1 
22374 22378     1 
22379 22396     1 
22379 22397     1 
22379 22401     1 
22380 22384     1 
22380 22385     1 
22380 22386     1 
22380 22388     1 
22380 22389     1 
22380 22390     1 
22380 22392     1 
22380 22393     1 
22380 22394     1 
22380 22398     1 
22381 22383     1 
22381 22387     1 
22381 22391     1 
22381 22396     1 
22381 22397     1 
22381 22401     1 
22382 22383     1 
22382 22387     1 
22382 22391     1 
22382 22396     1 
22382 22397     1 
22382 22401     1 
22383 22388     1 
22383 22389     1 
22383 22390     1 
22383 22392     1 
22383 22393     1 
22383 22394     1 
22383 22395     1 
22384 22387     1 
22384 22391     1 
22385 22387     1 
22385 22391     1 
22386 22387     1 
22386 22391     1 
22387 22392     1 
22387 22393     1 
22387 22394     1 
22387 22395     1 
22388 22391     1 
22389 22391     1 
22390 22391     1 
22391 22395     1 
22395 22399     1 
22395 22400     1 
22395 22402     1 
22396 22398     1 
22397 22398     1 
22398 22404     1 
22398 22405     1 
22398 22406     1 
22399 22403     1 
22400 22403     1 
22401 22403     1 
22402 22407     1 
22402 22408     1 
22402 22414     1 
22403 22409     1 
22403 22415     1 
22403 22416     1 
22403 22417     1 
22404 22407     1 
22404 22408     1 
22404 22414     1 
22405 22407     1 
22405 22408     1 
22405 22414     1 
22406 22410     1 
22406 22411     1 
22406 22418     1 
22407 22409     1 
22407 22415     1 
22407 22416     1 
22407 22417     1 
22408 22412     1 
22408 22413     1 
22408 22415     1 
22408 22416     1 
22408 22417     1 
22408 22423     1 
22409 22414     1 
22409 22424     1 
22409 22425     1 
22409 22426     1 
22410 22412     1 
22410 22413     1 
22410 22423     1 
22411 22427     1 
22411 22428     1 
22411 22429     1 
22412 22424     1 
22412 22425     1 
22412 22426     1 
22413 22424     1 
22413 22425     1 
22413 22426     1 
22414 22419     1 
22414 22420     1 
22415 22418     1 
22416 22418     1 
22417 22421     1 
22417 22422     1 
22417 22470     1 
22418 22471     1 
22418 22472     1 
22418 22473     1 
22419 22421     1 
22419 22422     1 
22419 22470     1 
22420 22474     1 
22420 22475     1 
22420 22476     1 
22421 22471     1 
22421 22472     1 
22421 22473     1 
22422 22471     1 
22422 22472     1 
22422 22473     1 
22423 22430     1 
22423 22431     1 
22423 22432     1 
22424 22427     1 
22424 22428     1 
22424 22429     1 
22425 22427     1 
22425 22428     1 
22425 22429     1 
22426 22433     1 
22426 22434     1 
22426 22435     1 
22427 22430     1 
22427 22431     1 
22427 22432     1 
22428 22430     1 
22428 22431     1 
22428 22432     1 
22429 22436     1 
22429 22437     1 
22429 22438     1 
22430 22433     1 
22430 22434     1 
22430 22435     1 
22431 22433     1 
22431 22434     1 
22431 22435     1 
22432 22439     1 
22432 22440     1 
22432 22441     1 
22433 22436     1 
22433 22437     1 
22433 22438     1 
22434 22436     1 
22434 22437     1 
22434 22438     1 
22435 22442     1 
22435 22443     1 
22436 22439     1 
22436 22440     1 
22436 22441     1 
22437 22439     1 
22437 22440     1 
22437 22441     1 
22438 22444     1 
22438 22445     1 
22439 22442     1 
22439 22443     1 
22440 22442     1 
22440 22443     1 
22441 22446     1 
22441 22447     1 
22441 22448     1 
22442 22444     1 
22442 22445     1 
22443 22449     1 
22443 22450     1 
22443 22451     1 
22444 22446     1 
22444 22447     1 
22444 22448     1 
22445 22452     1 
22445 22453     1 
22445 22454     1 
22446 22449     1 
22446 22450     1 
22446 22451     1 
22447 22449     1 
22447 22450     1 
22447 22451     1 
22448 22455     1 
22448 22456     1 
22448 22457     1 
22449 22452     1 
22449 22453     1 
22449 22454     1 
22450 22452     1 
22450 22453     1 
22450 22454     1 
22451 22458     1 
22451 22459     1 
22451 22460     1 
22452 22455     1 
22452 22456     1 
22452 22457     1 
22453 22455     1 
22453 22456     1 
22453 22457     1 
22454 22461     1 
22454 22462     1 
22454 22463     1 
22455 22458     1 
22455 22459     1 
22455 22460     1 
22456 22458     1 
22456 22459     1 
22456 22460     1 
22457 22464     1 
22457 22465     1 
22457 22466     1 
22458 22461     1 
22458 22462     1 
22458 22463     1 
22459 22461     1 
22459 22462     1 
22459 22463     1 
22460 22467     1 
22460 22468     1 
22460 22469     1 
22461 22464     1 
22461 22465     1 
22461 22466     1 
22462 22464     1 
22462 22465     1 
22462 22466     1 
22464 22467     1 
22464 22468     1 
22464 22469     1 
22465 22467     1 
22465 22468     1 
22465 22469     1 
22470 22477     1 
22470 22478     1 
22470 22479     1 
22471 22474     1 
22471 22475     1 
22471 22476     1 
22472 22474     1 
22472 22475     1 
22472 22476     1 
22473 22480     1 
22473 22481     1 
22473 22482     1 
22474 22477     1 
22474 22478     1 
22474 22479     1 
22475 22477     1 
22475 22478     1 
22475 22479     1 
22476 22483     1 
22476 22484     1 
22476 22485     1 
22477 22480     1 
22477 22481     1 
22477 22482     1 
22478 22480     1 
22478 22481     1 
22478 22482     1 
22479 22486     1 
22479 22487     1 
22479 22488     1 
22480 22483     1 
22480 22484     1 
22480 22485     1 
22481 22483     1 
22481 22484     1 
22481 22485     1 
22482 22489     1 
22482 22490     1 
22482 22491     1 
22483 22486     1 
22483 22487     1 
22483 22488     1 
22484 22486     1 
22484 22487     1 
22484 22488     1 
22485 22492     1 
22485 22493     1 
22485 22494     1 
22486 22489     1 
22486 22490     1 
22486 22491     1 
22487 22489     1 
22487 22490     1 
22487 22491     1 
22488 22495     1 
22488 22496     1 
22488 22497     1 
22489 22492     1 
22489 22493     1 
22489 22494     1 
22490 22492     1 
22490 22493     1 
22490 22494     1 
22491 22498     1 
22491 22499     1 
22491 22500     1 
22492 22495     1 
22492 22496     1 
22492 22497     1 
22493 22495     1 
22493 22496     1 
22493 22497     1 
22494 22501     1 
22494 22502     1 
22494 22503     1 
22495 22498     1 
22495 22499     1 
22495 22500     1 
22496 22498     1 
22496 22499     1 
22496 22500     1 
22497 22504     1 
22497 22505     1 
22497 22506     1 
22498 22501     1 
22498 22502     1 
22498 22503     1 
22499 22501     1 
22499 22502     1 
22499 22503     1 
22500 22507     1 
22500 22508     1 
22500 22509     1 
22501 22504     1 
22501 22505     1 
22501 22506     1 
22502 22504     1 
22502 22505     1 
22502 22506     1 
22503 22510     1 
22503 22511     1 
22503 22512     1 
22504 22507     1 
22504 22508     1 
22504 22509     1 
22505 22507     1 
22505 22508     1 
22505 22509     1 
22507 22510     1 
22507 22511     1 
22507 22512     1 
22508 22510     1 
22508 22511     1 
22508 22512     1 
22513 22530     1 
22513 22531     1 
22513 22535     1 
22514 22518     1 
22514 22519     1 
22514 22520     1 
22514 22522     1 
22514 22523     1 
22514 22524     1 
22514 22526     1 
22514 22527     1 
22514 22528     1 
22514 22532     1 
22515 22517     1 
22515 22521     1 
22515 22525     1 
22515 22530     1 
22515 22531     1 
22515 22535     1 
22516 22517     1 
22516 22521     1 
22516 22525     1 
22516 22530     1 
22516 22531     1 
22516 22535     1 
22517 22522     1 
22517 22523     1 
22517 22524     1 
22517 22526     1 
22517 22527     1 
22517 22528     1 
22517 22529     1 
22518 22521     1 
22518 22525     1 
22519 22521     1 
22519 22525     1 
22520 22521     1 
22520 22525     1 
22521 22526     1 
22521 22527     1 
22521 22528     1 
22521 22529     1 
22522 22525     1 
22523 22525     1 
22524 22525     1 
22525 22529     1 
22529 22533     1 
22529 22534     1 
22529 22536     1 
22530 22532     1 
22531 22532     1 
22532 22538     1 
22532 22539     1 
22532 22540     1 
22533 22537     1 
22534 22537     1 
22535 22537     1 
22536 22541     1 
22536 22542     1 
22536 22548     1 
22537 22543     1 
22537 22549     1 
22537 22550     1 
22537 22551     1 
22538 22541     1 
22538 22542     1 
22538 22548     1 
22539 22541     1 
22539 22542     1 
22539 22548     1 
22540 22544     1 
22540 22545     1 
22540 22552     1 
22541 22543     1 
22541 22549     1 
22541 22550     1 
22541 22551     1 
22542 22546     1 
22542 22547     1 
22542 22549     1 
22542 22550     1 
22542 22551     1 
22542 22557     1 
22543 22548     1 
22543 22558     1 
22543 22559     1 
22543 22560     1 
22544 22546     1 
22544 22547     1 
22544 22557     1 
22545 22561     1 
22545 22562     1 
22545 22563     1 
22546 22558     1 
22546 22559     1 
22546 22560     1 
22547 22558     1 
22547 22559     1 
22547 22560     1 
22548 22553     1 
22548 22554     1 
22549 22552     1 
22550 22552     1 
22551 22555     1 
22551 22556     1 
22551 22604     1 
22552 22605     1 
22552 22606     1 
22552 22607     1 
22553 22555     1 
22553 22556     1 
22553 22604     1 
22554 22608     1 
22554 22609     1 
22554 22610     1 
22555 22605     1 
22555 22606     1 
22555 22607     1 
22556 22605     1 
22556 22606     1 
22556 22607     1 
22557 22564     1 
22557 22565     1 
22557 22566     1 
22558 22561     1 
22558 22562     1 
22558 22563     1 
22559 22561     1 
22559 22562     1 
22559 22563     1 
22560 22567     1 
22560 22568     1 
22560 22569     1 
22561 22564     1 
22561 22565     1 
22561 22566     1 
22562 22564     1 
22562 22565     1 
22562 22566     1 
22563 22570     1 
22563 22571     1 
22563 22572     1 
22564 22567     1 
22564 22568     1 
22564 22569     1 
22565 22567     1 
22565 22568     1 
22565 22569     1 
22566 22573     1 
22566 22574     1 
22566 22575     1 
22567 22570     1 
22567 22571     1 
22567 22572     1 
22568 22570     1 
22568 22571     1 
22568 22572     1 
22569 22576     1 
22569 22577     1 
22570 22573     1 
22570 22574     1 
22570 22575     1 
22571 22573     1 
22571 22574     1 
22571 22575     1 
22572 22578     1 
22572 22579     1 
22573 22576     1 
22573 22577     1 
22574 22576     1 
22574 22577     1 
22575 22580     1 
22575 22581     1 
22575 22582     1 
22576 22578     1 
22576 22579     1 
22577 22583     1 
22577 22584     1 
22577 22585     1 
22578 22580     1 
22578 22581     1 
22578 22582     1 
22579 22586     1 
22579 22587     1 
22579 22588     1 
22580 22583     1 
22580 22584     1 
22580 22585     1 
22581 22583     1 
22581 22584     1 
22581 22585     1 
22582 22589     1 
22582 22590     1 
22582 22591     1 
22583 22586     1 
22583 22587     1 
22583 22588     1 
22584 22586     1 
22584 22587     1 
22584 22588     1 
22585 22592     1 
22585 22593     1 
22585 22594     1 
22586 22589     1 
22586 22590     1 
22586 22591     1 
22587 22589     1 
22587 22590     1 
22587 22591     1 
22588 22595     1 
22588 22596     1 
22588 22597     1 
22589 22592     1 
22589 22593     1 
22589 22594     1 
22590 22592     1 
22590 22593     1 
22590 22594     1 
22591 22598     1 
22591 22599     1 
22591 22600     1 
22592 22595     1 
22592 22596     1 
22592 22597     1 
22593 22595     1 
22593 22596     1 
22593 22597     1 
22594 22601     1 
22594 22602     1 
22594 22603     1 
22595 22598     1 
22595 22599     1 
22595 22600     1 
22596 22598     1 
22596 22599     1 
22596 22600     1 
22598 22601     1 
22598 22602     1 
22598 22603     1 
22599 22601     1 
22599 22602     1 
22599 22603     1 
22604 22611     1 
22604 22612     1 
22604 22613     1 
22605 22608     1 
22605 22609     1 
22605 22610     1 
22606 22608     1 
22606 22609     1 
22606 22610     1 
22607 22614     1 
22607 22615     1 
22607 22616     1 
22608 22611     1 
22608 22612     1 
22608 22613     1 
22609 22611     1 
22609 22612     1 
22609 22613     1 
22610 22617     1 
22610 22618     1 
22610 22619     1 
22611 22614     1 
22611 22615     1 
22611 22616     1 
22612 22614     1 
22612 22615     1 
22612 22616     1 
22613 22620     1 
22613 22621     1 
22613 22622     1 
22614 22617     1 
22614 22618     1 
22614 22619     1 
22615 22617     1 
22615 22618     1 
22615 22619     1 
22616 22623     1 
22616 22624     1 
22616 22625     1 
22617 22620     1 
22617 22621     1 
22617 22622     1 
22618 22620     1 
22618 22621     1 
22618 22622     1 
22619 22626     1 
22619 22627     1 
22619 22628     1 
22620 22623     1 
22620 22624     1 
22620 22625     1 
22621 22623     1 
22621 22624     1 
22621 22625     1 
22622 22629     1 
22622 22630     1 
22622 22631     1 
22623 22626     1 
22623 22627     1 
22623 22628     1 
22624 22626     1 
22624 22627     1 
22624 22628     1 
22625 22632     1 
22625 22633     1 
22625 22634     1 
22626 22629     1 
22626 22630     1 
22626 22631     1 
22627 22629     1 
22627 22630     1 
22627 22631     1 
22628 22635     1 
22628 22636     1 
22628 22637     1 
22629 22632     1 
22629 22633     1 
22629 22634     1 
22630 22632     1 
22630 22633     1 
22630 22634     1 
22631 22638     1 
22631 22639     1 
22631 22640     1 
22632 22635     1 
22632 22636     1 
22632 22637     1 
22633 22635     1 
22633 22636     1 
22633 22637     1 
22634 22641     1 
22634 22642     1 
22634 22643     1 
22635 22638     1 
22635 22639     1 
22635 22640     1 
22636 22638     1 
22636 22639     1 
22636 22640     1 
22637 22644     1 
22637 22645     1 
22637 22646     1 
22638 22641     1 
22638 22642     1 
22638 22643     1 
22639 22641     1 
22639 22642     1 
22639 22643     1 
22641 22644     1 
22641 22645     1 
22641 22646     1 
22642 22644     1 
22642 22645     1 
22642 22646     1 

[ angles ]
;  ai    aj    ak funct            c0            c1            c2            c3
    2     1     5     5 
    2     1     9     5 
    2     1    13     5 
    5     1     9     5 
    5     1    13     5 
    9     1    13     5 
    1     2     3     5 
    1     2     4     5 
    1     2    17     5 
    3     2     4     5 
    3     2    17     5 
    4     2    17     5 
    1     5     6     5 
    1     5     7     5 
    1     5     8     5 
    6     5     7     5 
    6     5     8     5 
    7     5     8     5 
    1     9    10     5 
    1     9    11     5 
    1     9    12     5 
   10     9    11     5 
   10     9    12     5 
   11     9    12     5 
    1    13    14     5 
    1    13    15     5 
    1    13    16     5 
   14    13    15     5 
   14    13    16     5 
   15    13    16     5 
    2    17    18     5 
    2    17    19     5 
    2    17    23     5 
   18    17    19     5 
   18    17    23     5 
   19    17    23     5 
   21    20    22     5 
   21    20    23     5 
   21    20    24     5 
   22    20    23     5 
   22    20    24     5 
   23    20    24     5 
   17    23    20     5 
   20    24    25     5 
   24    25    26     5 
   24    25    27     5 
   24    25    28     5 
   26    25    27     5 
   26    25    28     5 
   27    25    28     5 
   25    28    29     5 
   25    28    30     5 
   25    28    36     5 
   29    28    30     5 
   29    28    36     5 
   30    28    36     5 
   28    30    31     5 
   30    31    32     5 
   30    31    33     5 
   32    31    33     5 
   31    33    34     5 
   31    33    35     5 
   31    33    45     5 
   34    33    35     5 
   34    33    45     5 
   35    33    45     5 
   28    36    37     5 
   28    36    38     5 
   28    36    39     5 
   37    36    38     5 
   37    36    39     5 
   38    36    39     5 
   36    39    40     5 
   39    40    41     5 
   39    40    42     5 
   41    40    42     5 
   40    42    43     5 
   40    42    44     5 
   40    42    92     5 
   43    42    44     5 
   43    42    92     5 
   44    42    92     5 
   33    45    46     5 
   33    45    47     5 
   33    45    48     5 
   46    45    47     5 
   46    45    48     5 
   47    45    48     5 
   45    48    49     5 
   45    48    50     5 
   45    48    51     5 
   49    48    50     5 
   49    48    51     5 
   50    48    51     5 
   48    51    52     5 
   48    51    53     5 
   48    51    54     5 
   52    51    53     5 
   52    51    54     5 
   53    51    54     5 
   51    54    55     5 
   51    54    56     5 
   51    54    57     5 
   55    54    56     5 
   55    54    57     5 
   56    54    57     5 
   54    57    58     5 
   54    57    59     5 
   54    57    60     5 
   58    57    59     5 
   58    57    60     5 
   59    57    60     5 
   57    60    61     5 
   57    60    62     5 
   57    60    63     5 
   61    60    62     5 
   61    60    63     5 
   62    60    63     5 
   60    63    64     5 
   60    63    65     5 
   64    63    65     5 
   63    65    66     5 
   63    65    67     5 
   66    65    67     5 
   65    67    68     5 
   65    67    69     5 
   65    67    70     5 
   68    67    69     5 
   68    67    70     5 
   69    67    70     5 
   67    70    71     5 
   67    70    72     5 
   67    70    73     5 
   71    70    72     5 
   71    70    73     5 
   72    70    73     5 
   70    73    74     5 
   70    73    75     5 
   70    73    76     5 
   74    73    75     5 
   74    73    76     5 
   75    73    76     5 
   73    76    77     5 
   73    76    78     5 
   73    76    79     5 
   77    76    78     5 
   77    76    79     5 
   78    76    79     5 
   76    79    80     5 
   76    79    81     5 
   76    79    82     5 
   80    79    81     5 
   80    79    82     5 
   81    79    82     5 
   79    82    83     5 
   79    82    84     5 
   79    82    85     5 
   83    82    84     5 
   83    82    85     5 
   84    82    85     5 
   82    85    86     5 
   82    85    87     5 
   82    85    88     5 
   86    85    87     5 
   86    85    88     5 
   87    85    88     5 
   85    88    89     5 
   85    88    90     5 
   85    88    91     5 
   89    88    90     5 
   89    88    91     5 
   90    88    91     5 
   42    92    93     5 
   42    92    94     5 
   42    92    95     5 
   93    92    94     5 
   93    92    95     5 
   94    92    95     5 
   92    95    96     5 
   92    95    97     5 
   92    95    98     5 
   96    95    97     5 
   96    95    98     5 
   97    95    98     5 
   95    98    99     5 
   95    98   100     5 
   95    98   101     5 
   99    98   100     5 
   99    98   101     5 
  100    98   101     5 
   98   101   102     5 
   98   101   103     5 
   98   101   104     5 
  102   101   103     5 
  102   101   104     5 
  103   101   104     5 
  101   104   105     5 
  101   104   106     5 
  101   104   107     5 
  105   104   106     5 
  105   104   107     5 
  106   104   107     5 
  104   107   108     5 
  104   107   109     5 
  104   107   110     5 
  108   107   109     5 
  108   107   110     5 
  109   107   110     5 
  107   110   111     5 
  107   110   112     5 
  107   110   113     5 
  111   110   112     5 
  111   110   113     5 
  112   110   113     5 
  110   113   114     5 
  110   113   115     5 
  110   113   116     5 
  114   113   115     5 
  114   113   116     5 
  115   113   116     5 
  113   116   117     5 
  113   116   118     5 
  113   116   119     5 
  117   116   118     5 
  117   116   119     5 
  118   116   119     5 
  116   119   120     5 
  116   119   121     5 
  116   119   122     5 
  120   119   121     5 
  120   119   122     5 
  121   119   122     5 
  119   122   123     5 
  119   122   124     5 
  119   122   125     5 
  123   122   124     5 
  123   122   125     5 
  124   122   125     5 
  122   125   126     5 
  122   125   127     5 
  122   125   128     5 
  126   125   127     5 
  126   125   128     5 
  127   125   128     5 
  125   128   129     5 
  125   128   130     5 
  125   128   131     5 
  129   128   130     5 
  129   128   131     5 
  130   128   131     5 
  128   131   132     5 
  128   131   133     5 
  128   131   134     5 
  132   131   133     5 
  132   131   134     5 
  133   131   134     5 
  136   135   139     5 
  136   135   143     5 
  136   135   147     5 
  139   135   143     5 
  139   135   147     5 
  143   135   147     5 
  135   136   137     5 
  135   136   138     5 
  135   136   151     5 
  137   136   138     5 
  137   136   151     5 
  138   136   151     5 
  135   139   140     5 
  135   139   141     5 
  135   139   142     5 
  140   139   141     5 
  140   139   142     5 
  141   139   142     5 
  135   143   144     5 
  135   143   145     5 
  135   143   146     5 
  144   143   145     5 
  144   143   146     5 
  145   143   146     5 
  135   147   148     5 
  135   147   149     5 
  135   147   150     5 
  148   147   149     5 
  148   147   150     5 
  149   147   150     5 
  136   151   152     5 
  136   151   153     5 
  136   151   157     5 
  152   151   153     5 
  152   151   157     5 
  153   151   157     5 
  155   154   156     5 
  155   154   157     5 
  155   154   158     5 
  156   154   157     5 
  156   154   158     5 
  157   154   158     5 
  151   157   154     5 
  154   158   159     5 
  158   159   160     5 
  158   159   161     5 
  158   159   162     5 
  160   159   161     5 
  160   159   162     5 
  161   159   162     5 
  159   162   163     5 
  159   162   164     5 
  159   162   170     5 
  163   162   164     5 
  163   162   170     5 
  164   162   170     5 
  162   164   165     5 
  164   165   166     5 
  164   165   167     5 
  166   165   167     5 
  165   167   168     5 
  165   167   169     5 
  165   167   179     5 
  168   167   169     5 
  168   167   179     5 
  169   167   179     5 
  162   170   171     5 
  162   170   172     5 
  162   170   173     5 
  171   170   172     5 
  171   170   173     5 
  172   170   173     5 
  170   173   174     5 
  173   174   175     5 
  173   174   176     5 
  175   174   176     5 
  174   176   177     5 
  174   176   178     5 
  174   176   226     5 
  177   176   178     5 
  177   176   226     5 
  178   176   226     5 
  167   179   180     5 
  167   179   181     5 
  167   179   182     5 
  180   179   181     5 
  180   179   182     5 
  181   179   182     5 
  179   182   183     5 
  179   182   184     5 
  179   182   185     5 
  183   182   184     5 
  183   182   185     5 
  184   182   185     5 
  182   185   186     5 
  182   185   187     5 
  182   185   188     5 
  186   185   187     5 
  186   185   188     5 
  187   185   188     5 
  185   188   189     5 
  185   188   190     5 
  185   188   191     5 
  189   188   190     5 
  189   188   191     5 
  190   188   191     5 
  188   191   192     5 
  188   191   193     5 
  188   191   194     5 
  192   191   193     5 
  192   191   194     5 
  193   191   194     5 
  191   194   195     5 
  191   194   196     5 
  191   194   197     5 
  195   194   196     5 
  195   194   197     5 
  196   194   197     5 
  194   197   198     5 
  194   197   199     5 
  198   197   199     5 
  197   199   200     5 
  197   199   201     5 
  200   199   201     5 
  199   201   202     5 
  199   201   203     5 
  199   201   204     5 
  202   201   203     5 
  202   201   204     5 
  203   201   204     5 
  201   204   205     5 
  201   204   206     5 
  201   204   207     5 
  205   204   206     5 
  205   204   207     5 
  206   204   207     5 
  204   207   208     5 
  204   207   209     5 
  204   207   210     5 
  208   207   209     5 
  208   207   210     5 
  209   207   210     5 
  207   210   211     5 
  207   210   212     5 
  207   210   213     5 
  211   210   212     5 
  211   210   213     5 
  212   210   213     5 
  210   213   214     5 
  210   213   215     5 
  210   213   216     5 
  214   213   215     5 
  214   213   216     5 
  215   213   216     5 
  213   216   217     5 
  213   216   218     5 
  213   216   219     5 
  217   216   218     5 
  217   216   219     5 
  218   216   219     5 
  216   219   220     5 
  216   219   221     5 
  216   219   222     5 
  220   219   221     5 
  220   219   222     5 
  221   219   222     5 
  219   222   223     5 
  219   222   224     5 
  219   222   225     5 
  223   222   224     5 
  223   222   225     5 
  224   222   225     5 
  176   226   227     5 
  176   226   228     5 
  176   226   229     5 
  227   226   228     5 
  227   226   229     5 
  228   226   229     5 
  226   229   230     5 
  226   229   231     5 
  226   229   232     5 
  230   229   231     5 
  230   229   232     5 
  231   229   232     5 
  229   232   233     5 
  229   232   234     5 
  229   232   235     5 
  233   232   234     5 
  233   232   235     5 
  234   232   235     5 
  232   235   236     5 
  232   235   237     5 
  232   235   238     5 
  236   235   237     5 
  236   235   238     5 
  237   235   238     5 
  235   238   239     5 
  235   238   240     5 
  235   238   241     5 
  239   238   240     5 
  239   238   241     5 
  240   238   241     5 
  238   241   242     5 
  238   241   243     5 
  238   241   244     5 
  242   241   243     5 
  242   241   244     5 
  243   241   244     5 
  241   244   245     5 
  241   244   246     5 
  241   244   247     5 
  245   244   246     5 
  245   244   247     5 
  246   244   247     5 
  244   247   248     5 
  244   247   249     5 
  244   247   250     5 
  248   247   249     5 
  248   247   250     5 
  249   247   250     5 
  247   250   251     5 
  247   250   252     5 
  247   250   253     5 
  251   250   252     5 
  251   250   253     5 
  252   250   253     5 
  250   253   254     5 
  250   253   255     5 
  250   253   256     5 
  254   253   255     5 
  254   253   256     5 
  255   253   256     5 
  253   256   257     5 
  253   256   258     5 
  253   256   259     5 
  257   256   258     5 
  257   256   259     5 
  258   256   259     5 
  256   259   260     5 
  256   259   261     5 
  256   259   262     5 
  260   259   261     5 
  260   259   262     5 
  261   259   262     5 
  259   262   263     5 
  259   262   264     5 
  259   262   265     5 
  263   262   264     5 
  263   262   265     5 
  264   262   265     5 
  262   265   266     5 
  262   265   267     5 
  262   265   268     5 
  266   265   267     5 
  266   265   268     5 
  267   265   268     5 
  270   269   273     5 
  270   269   277     5 
  270   269   281     5 
  273   269   277     5 
  273   269   281     5 
  277   269   281     5 
  269   270   271     5 
  269   270   272     5 
  269   270   285     5 
  271   270   272     5 
  271   270   285     5 
  272   270   285     5 
  269   273   274     5 
  269   273   275     5 
  269   273   276     5 
  274   273   275     5 
  274   273   276     5 
  275   273   276     5 
  269   277   278     5 
  269   277   279     5 
  269   277   280     5 
  278   277   279     5 
  278   277   280     5 
  279   277   280     5 
  269   281   282     5 
  269   281   283     5 
  269   281   284     5 
  282   281   283     5 
  282   281   284     5 
  283   281   284     5 
  270   285   286     5 
  270   285   287     5 
  270   285   291     5 
  286   285   287     5 
  286   285   291     5 
  287   285   291     5 
  289   288   290     5 
  289   288   291     5 
  289   288   292     5 
  290   288   291     5 
  290   288   292     5 
  291   288   292     5 
  285   291   288     5 
  288   292   293     5 
  292   293   294     5 
  292   293   295     5 
  292   293   296     5 
  294   293   295     5 
  294   293   296     5 
  295   293   296     5 
  293   296   297     5 
  293   296   298     5 
  293   296   304     5 
  297   296   298     5 
  297   296   304     5 
  298   296   304     5 
  296   298   299     5 
  298   299   300     5 
  298   299   301     5 
  300   299   301     5 
  299   301   302     5 
  299   301   303     5 
  299   301   313     5 
  302   301   303     5 
  302   301   313     5 
  303   301   313     5 
  296   304   305     5 
  296   304   306     5 
  296   304   307     5 
  305   304   306     5 
  305   304   307     5 
  306   304   307     5 
  304   307   308     5 
  307   308   309     5 
  307   308   310     5 
  309   308   310     5 
  308   310   311     5 
  308   310   312     5 
  308   310   360     5 
  311   310   312     5 
  311   310   360     5 
  312   310   360     5 
  301   313   314     5 
  301   313   315     5 
  301   313   316     5 
  314   313   315     5 
  314   313   316     5 
  315   313   316     5 
  313   316   317     5 
  313   316   318     5 
  313   316   319     5 
  317   316   318     5 
  317   316   319     5 
  318   316   319     5 
  316   319   320     5 
  316   319   321     5 
  316   319   322     5 
  320   319   321     5 
  320   319   322     5 
  321   319   322     5 
  319   322   323     5 
  319   322   324     5 
  319   322   325     5 
  323   322   324     5 
  323   322   325     5 
  324   322   325     5 
  322   325   326     5 
  322   325   327     5 
  322   325   328     5 
  326   325   327     5 
  326   325   328     5 
  327   325   328     5 
  325   328   329     5 
  325   328   330     5 
  325   328   331     5 
  329   328   330     5 
  329   328   331     5 
  330   328   331     5 
  328   331   332     5 
  328   331   333     5 
  332   331   333     5 
  331   333   334     5 
  331   333   335     5 
  334   333   335     5 
  333   335   336     5 
  333   335   337     5 
  333   335   338     5 
  336   335   337     5 
  336   335   338     5 
  337   335   338     5 
  335   338   339     5 
  335   338   340     5 
  335   338   341     5 
  339   338   340     5 
  339   338   341     5 
  340   338   341     5 
  338   341   342     5 
  338   341   343     5 
  338   341   344     5 
  342   341   343     5 
  342   341   344     5 
  343   341   344     5 
  341   344   345     5 
  341   344   346     5 
  341   344   347     5 
  345   344   346     5 
  345   344   347     5 
  346   344   347     5 
  344   347   348     5 
  344   347   349     5 
  344   347   350     5 
  348   347   349     5 
  348   347   350     5 
  349   347   350     5 
  347   350   351     5 
  347   350   352     5 
  347   350   353     5 
  351   350   352     5 
  351   350   353     5 
  352   350   353     5 
  350   353   354     5 
  350   353   355     5 
  350   353   356     5 
  354   353   355     5 
  354   353   356     5 
  355   353   356     5 
  353   356   357     5 
  353   356   358     5 
  353   356   359     5 
  357   356   358     5 
  357   356   359     5 
  358   356   359     5 
  310   360   361     5 
  310   360   362     5 
  310   360   363     5 
  361   360   362     5 
  361   360   363     5 
  362   360   363     5 
  360   363   364     5 
  360   363   365     5 
  360   363   366     5 
  364   363   365     5 
  364   363   366     5 
  365   363   366     5 
  363   366   367     5 
  363   366   368     5 
  363   366   369     5 
  367   366   368     5 
  367   366   369     5 
  368   366   369     5 
  366   369   370     5 
  366   369   371     5 
  366   369   372     5 
  370   369   371     5 
  370   369   372     5 
  371   369   372     5 
  369   372   373     5 
  369   372   374     5 
  369   372   375     5 
  373   372   374     5 
  373   372   375     5 
  374   372   375     5 
  372   375   376     5 
  372   375   377     5 
  372   375   378     5 
  376   375   377     5 
  376   375   378     5 
  377   375   378     5 
  375   378   379     5 
  375   378   380     5 
  375   378   381     5 
  379   378   380     5 
  379   378   381     5 
  380   378   381     5 
  378   381   382     5 
  378   381   383     5 
  378   381   384     5 
  382   381   383     5 
  382   381   384     5 
  383   381   384     5 
  381   384   385     5 
  381   384   386     5 
  381   384   387     5 
  385   384   386     5 
  385   384   387     5 
  386   384   387     5 
  384   387   388     5 
  384   387   389     5 
  384   387   390     5 
  388   387   389     5 
  388   387   390     5 
  389   387   390     5 
  387   390   391     5 
  387   390   392     5 
  387   390   393     5 
  391   390   392     5 
  391   390   393     5 
  392   390   393     5 
  390   393   394     5 
  390   393   395     5 
  390   393   396     5 
  394   393   395     5 
  394   393   396     5 
  395   393   396     5 
  393   396   397     5 
  393   396   398     5 
  393   396   399     5 
  397   396   398     5 
  397   396   399     5 
  398   396   399     5 
  396   399   400     5 
  396   399   401     5 
  396   399   402     5 
  400   399   401     5 
  400   399   402     5 
  401   399   402     5 
  404   403   407     5 
  404   403   411     5 
  404   403   415     5 
  407   403   411     5 
  407   403   415     5 
  411   403   415     5 
  403   404   405     5 
  403   404   406     5 
  403   404   419     5 
  405   404   406     5 
  405   404   419     5 
  406   404   419     5 
  403   407   408     5 
  403   407   409     5 
  403   407   410     5 
  408   407   409     5 
  408   407   410     5 
  409   407   410     5 
  403   411   412     5 
  403   411   413     5 
  403   411   414     5 
  412   411   413     5 
  412   411   414     5 
  413   411   414     5 
  403   415   416     5 
  403   415   417     5 
  403   415   418     5 
  416   415   417     5 
  416   415   418     5 
  417   415   418     5 
  404   419   420     5 
  404   419   421     5 
  404   419   425     5 
  420   419   421     5 
  420   419   425     5 
  421   419   425     5 
  423   422   424     5 
  423   422   425     5 
  423   422   426     5 
  424   422   425     5 
  424   422   426     5 
  425   422   426     5 
  419   425   422     5 
  422   426   427     5 
  426   427   428     5 
  426   427   429     5 
  426   427   430     5 
  428   427   429     5 
  428   427   430     5 
  429   427   430     5 
  427   430   431     5 
  427   430   432     5 
  427   430   438     5 
  431   430   432     5 
  431   430   438     5 
  432   430   438     5 
  430   432   433     5 
  432   433   434     5 
  432   433   435     5 
  434   433   435     5 
  433   435   436     5 
  433   435   437     5 
  433   435   447     5 
  436   435   437     5 
  436   435   447     5 
  437   435   447     5 
  430   438   439     5 
  430   438   440     5 
  430   438   441     5 
  439   438   440     5 
  439   438   441     5 
  440   438   441     5 
  438   441   442     5 
  441   442   443     5 
  441   442   444     5 
  443   442   444     5 
  442   444   445     5 
  442   444   446     5 
  442   444   494     5 
  445   444   446     5 
  445   444   494     5 
  446   444   494     5 
  435   447   448     5 
  435   447   449     5 
  435   447   450     5 
  448   447   449     5 
  448   447   450     5 
  449   447   450     5 
  447   450   451     5 
  447   450   452     5 
  447   450   453     5 
  451   450   452     5 
  451   450   453     5 
  452   450   453     5 
  450   453   454     5 
  450   453   455     5 
  450   453   456     5 
  454   453   455     5 
  454   453   456     5 
  455   453   456     5 
  453   456   457     5 
  453   456   458     5 
  453   456   459     5 
  457   456   458     5 
  457   456   459     5 
  458   456   459     5 
  456   459   460     5 
  456   459   461     5 
  456   459   462     5 
  460   459   461     5 
  460   459   462     5 
  461   459   462     5 
  459   462   463     5 
  459   462   464     5 
  459   462   465     5 
  463   462   464     5 
  463   462   465     5 
  464   462   465     5 
  462   465   466     5 
  462   465   467     5 
  466   465   467     5 
  465   467   468     5 
  465   467   469     5 
  468   467   469     5 
  467   469   470     5 
  467   469   471     5 
  467   469   472     5 
  470   469   471     5 
  470   469   472     5 
  471   469   472     5 
  469   472   473     5 
  469   472   474     5 
  469   472   475     5 
  473   472   474     5 
  473   472   475     5 
  474   472   475     5 
  472   475   476     5 
  472   475   477     5 
  472   475   478     5 
  476   475   477     5 
  476   475   478     5 
  477   475   478     5 
  475   478   479     5 
  475   478   480     5 
  475   478   481     5 
  479   478   480     5 
  479   478   481     5 
  480   478   481     5 
  478   481   482     5 
  478   481   483     5 
  478   481   484     5 
  482   481   483     5 
  482   481   484     5 
  483   481   484     5 
  481   484   485     5 
  481   484   486     5 
  481   484   487     5 
  485   484   486     5 
  485   484   487     5 
  486   484   487     5 
  484   487   488     5 
  484   487   489     5 
  484   487   490     5 
  488   487   489     5 
  488   487   490     5 
  489   487   490     5 
  487   490   491     5 
  487   490   492     5 
  487   490   493     5 
  491   490   492     5 
  491   490   493     5 
  492   490   493     5 
  444   494   495     5 
  444   494   496     5 
  444   494   497     5 
  495   494   496     5 
  495   494   497     5 
  496   494   497     5 
  494   497   498     5 
  494   497   499     5 
  494   497   500     5 
  498   497   499     5 
  498   497   500     5 
  499   497   500     5 
  497   500   501     5 
  497   500   502     5 
  497   500   503     5 
  501   500   502     5 
  501   500   503     5 
  502   500   503     5 
  500   503   504     5 
  500   503   505     5 
  500   503   506     5 
  504   503   505     5 
  504   503   506     5 
  505   503   506     5 
  503   506   507     5 
  503   506   508     5 
  503   506   509     5 
  507   506   508     5 
  507   506   509     5 
  508   506   509     5 
  506   509   510     5 
  506   509   511     5 
  506   509   512     5 
  510   509   511     5 
  510   509   512     5 
  511   509   512     5 
  509   512   513     5 
  509   512   514     5 
  509   512   515     5 
  513   512   514     5 
  513   512   515     5 
  514   512   515     5 
  512   515   516     5 
  512   515   517     5 
  512   515   518     5 
  516   515   517     5 
  516   515   518     5 
  517   515   518     5 
  515   518   519     5 
  515   518   520     5 
  515   518   521     5 
  519   518   520     5 
  519   518   521     5 
  520   518   521     5 
  518   521   522     5 
  518   521   523     5 
  518   521   524     5 
  522   521   523     5 
  522   521   524     5 
  523   521   524     5 
  521   524   525     5 
  521   524   526     5 
  521   524   527     5 
  525   524   526     5 
  525   524   527     5 
  526   524   527     5 
  524   527   528     5 
  524   527   529     5 
  524   527   530     5 
  528   527   529     5 
  528   527   530     5 
  529   527   530     5 
  527   530   531     5 
  527   530   532     5 
  527   530   533     5 
  531   530   532     5 
  531   530   533     5 
  532   530   533     5 
  530   533   534     5 
  530   533   535     5 
  530   533   536     5 
  534   533   535     5 
  534   533   536     5 
  535   533   536     5 
  538   537   541     5 
  538   537   545     5 
  538   537   549     5 
  541   537   545     5 
  541   537   549     5 
  545   537   549     5 
  537   538   539     5 
  537   538   540     5 
  537   538   553     5 
  539   538   540     5 
  539   538   553     5 
  540   538   553     5 
  537   541   542     5 
  537   541   543     5 
  537   541   544     5 
  542   541   543     5 
  542   541   544     5 
  543   541   544     5 
  537   545   546     5 
  537   545   547     5 
  537   545   548     5 
  546   545   547     5 
  546   545   548     5 
  547   545   548     5 
  537   549   550     5 
  537   549   551     5 
  537   549   552     5 
  550   549   551     5 
  550   549   552     5 
  551   549   552     5 
  538   553   554     5 
  538   553   555     5 
  538   553   559     5 
  554   553   555     5 
  554   553   559     5 
  555   553   559     5 
  557   556   558     5 
  557   556   559     5 
  557   556   560     5 
  558   556   559     5 
  558   556   560     5 
  559   556   560     5 
  553   559   556     5 
  556   560   561     5 
  560   561   562     5 
  560   561   563     5 
  560   561   564     5 
  562   561   563     5 
  562   561   564     5 
  563   561   564     5 
  561   564   565     5 
  561   564   566     5 
  561   564   572     5 
  565   564   566     5 
  565   564   572     5 
  566   564   572     5 
  564   566   567     5 
  566   567   568     5 
  566   567   569     5 
  568   567   569     5 
  567   569   570     5 
  567   569   571     5 
  567   569   581     5 
  570   569   571     5 
  570   569   581     5 
  571   569   581     5 
  564   572   573     5 
  564   572   574     5 
  564   572   575     5 
  573   572   574     5 
  573   572   575     5 
  574   572   575     5 
  572   575   576     5 
  575   576   577     5 
  575   576   578     5 
  577   576   578     5 
  576   578   579     5 
  576   578   580     5 
  576   578   628     5 
  579   578   580     5 
  579   578   628     5 
  580   578   628     5 
  569   581   582     5 
  569   581   583     5 
  569   581   584     5 
  582   581   583     5 
  582   581   584     5 
  583   581   584     5 
  581   584   585     5 
  581   584   586     5 
  581   584   587     5 
  585   584   586     5 
  585   584   587     5 
  586   584   587     5 
  584   587   588     5 
  584   587   589     5 
  584   587   590     5 
  588   587   589     5 
  588   587   590     5 
  589   587   590     5 
  587   590   591     5 
  587   590   592     5 
  587   590   593     5 
  591   590   592     5 
  591   590   593     5 
  592   590   593     5 
  590   593   594     5 
  590   593   595     5 
  590   593   596     5 
  594   593   595     5 
  594   593   596     5 
  595   593   596     5 
  593   596   597     5 
  593   596   598     5 
  593   596   599     5 
  597   596   598     5 
  597   596   599     5 
  598   596   599     5 
  596   599   600     5 
  596   599   601     5 
  600   599   601     5 
  599   601   602     5 
  599   601   603     5 
  602   601   603     5 
  601   603   604     5 
  601   603   605     5 
  601   603   606     5 
  604   603   605     5 
  604   603   606     5 
  605   603   606     5 
  603   606   607     5 
  603   606   608     5 
  603   606   609     5 
  607   606   608     5 
  607   606   609     5 
  608   606   609     5 
  606   609   610     5 
  606   609   611     5 
  606   609   612     5 
  610   609   611     5 
  610   609   612     5 
  611   609   612     5 
  609   612   613     5 
  609   612   614     5 
  609   612   615     5 
  613   612   614     5 
  613   612   615     5 
  614   612   615     5 
  612   615   616     5 
  612   615   617     5 
  612   615   618     5 
  616   615   617     5 
  616   615   618     5 
  617   615   618     5 
  615   618   619     5 
  615   618   620     5 
  615   618   621     5 
  619   618   620     5 
  619   618   621     5 
  620   618   621     5 
  618   621   622     5 
  618   621   623     5 
  618   621   624     5 
  622   621   623     5 
  622   621   624     5 
  623   621   624     5 
  621   624   625     5 
  621   624   626     5 
  621   624   627     5 
  625   624   626     5 
  625   624   627     5 
  626   624   627     5 
  578   628   629     5 
  578   628   630     5 
  578   628   631     5 
  629   628   630     5 
  629   628   631     5 
  630   628   631     5 
  628   631   632     5 
  628   631   633     5 
  628   631   634     5 
  632   631   633     5 
  632   631   634     5 
  633   631   634     5 
  631   634   635     5 
  631   634   636     5 
  631   634   637     5 
  635   634   636     5 
  635   634   637     5 
  636   634   637     5 
  634   637   638     5 
  634   637   639     5 
  634   637   640     5 
  638   637   639     5 
  638   637   640     5 
  639   637   640     5 
  637   640   641     5 
  637   640   642     5 
  637   640   643     5 
  641   640   642     5 
  641   640   643     5 
  642   640   643     5 
  640   643   644     5 
  640   643   645     5 
  640   643   646     5 
  644   643   645     5 
  644   643   646     5 
  645   643   646     5 
  643   646   647     5 
  643   646   648     5 
  643   646   649     5 
  647   646   648     5 
  647   646   649     5 
  648   646   649     5 
  646   649   650     5 
  646   649   651     5 
  646   649   652     5 
  650   649   651     5 
  650   649   652     5 
  651   649   652     5 
  649   652   653     5 
  649   652   654     5 
  649   652   655     5 
  653   652   654     5 
  653   652   655     5 
  654   652   655     5 
  652   655   656     5 
  652   655   657     5 
  652   655   658     5 
  656   655   657     5 
  656   655   658     5 
  657   655   658     5 
  655   658   659     5 
  655   658   660     5 
  655   658   661     5 
  659   658   660     5 
  659   658   661     5 
  660   658   661     5 
  658   661   662     5 
  658   661   663     5 
  658   661   664     5 
  662   661   663     5 
  662   661   664     5 
  663   661   664     5 
  661   664   665     5 
  661   664   666     5 
  661   664   667     5 
  665   664   666     5 
  665   664   667     5 
  666   664   667     5 
  664   667   668     5 
  664   667   669     5 
  664   667   670     5 
  668   667   669     5 
  668   667   670     5 
  669   667   670     5 
  672   671   675     5 
  672   671   679     5 
  672   671   683     5 
  675   671   679     5 
  675   671   683     5 
  679   671   683     5 
  671   672   673     5 
  671   672   674     5 
  671   672   687     5 
  673   672   674     5 
  673   672   687     5 
  674   672   687     5 
  671   675   676     5 
  671   675   677     5 
  671   675   678     5 
  676   675   677     5 
  676   675   678     5 
  677   675   678     5 
  671   679   680     5 
  671   679   681     5 
  671   679   682     5 
  680   679   681     5 
  680   679   682     5 
  681   679   682     5 
  671   683   684     5 
  671   683   685     5 
  671   683   686     5 
  684   683   685     5 
  684   683   686     5 
  685   683   686     5 
  672   687   688     5 
  672   687   689     5 
  672   687   693     5 
  688   687   689     5 
  688   687   693     5 
  689   687   693     5 
  691   690   692     5 
  691   690   693     5 
  691   690   694     5 
  692   690   693     5 
  692   690   694     5 
  693   690   694     5 
  687   693   690     5 
  690   694   695     5 
  694   695   696     5 
  694   695   697     5 
  694   695   698     5 
  696   695   697     5 
  696   695   698     5 
  697   695   698     5 
  695   698   699     5 
  695   698   700     5 
  695   698   706     5 
  699   698   700     5 
  699   698   706     5 
  700   698   706     5 
  698   700   701     5 
  700   701   702     5 
  700   701   703     5 
  702   701   703     5 
  701   703   704     5 
  701   703   705     5 
  701   703   715     5 
  704   703   705     5 
  704   703   715     5 
  705   703   715     5 
  698   706   707     5 
  698   706   708     5 
  698   706   709     5 
  707   706   708     5 
  707   706   709     5 
  708   706   709     5 
  706   709   710     5 
  709   710   711     5 
  709   710   712     5 
  711   710   712     5 
  710   712   713     5 
  710   712   714     5 
  710   712   762     5 
  713   712   714     5 
  713   712   762     5 
  714   712   762     5 
  703   715   716     5 
  703   715   717     5 
  703   715   718     5 
  716   715   717     5 
  716   715   718     5 
  717   715   718     5 
  715   718   719     5 
  715   718   720     5 
  715   718   721     5 
  719   718   720     5 
  719   718   721     5 
  720   718   721     5 
  718   721   722     5 
  718   721   723     5 
  718   721   724     5 
  722   721   723     5 
  722   721   724     5 
  723   721   724     5 
  721   724   725     5 
  721   724   726     5 
  721   724   727     5 
  725   724   726     5 
  725   724   727     5 
  726   724   727     5 
  724   727   728     5 
  724   727   729     5 
  724   727   730     5 
  728   727   729     5 
  728   727   730     5 
  729   727   730     5 
  727   730   731     5 
  727   730   732     5 
  727   730   733     5 
  731   730   732     5 
  731   730   733     5 
  732   730   733     5 
  730   733   734     5 
  730   733   735     5 
  734   733   735     5 
  733   735   736     5 
  733   735   737     5 
  736   735   737     5 
  735   737   738     5 
  735   737   739     5 
  735   737   740     5 
  738   737   739     5 
  738   737   740     5 
  739   737   740     5 
  737   740   741     5 
  737   740   742     5 
  737   740   743     5 
  741   740   742     5 
  741   740   743     5 
  742   740   743     5 
  740   743   744     5 
  740   743   745     5 
  740   743   746     5 
  744   743   745     5 
  744   743   746     5 
  745   743   746     5 
  743   746   747     5 
  743   746   748     5 
  743   746   749     5 
  747   746   748     5 
  747   746   749     5 
  748   746   749     5 
  746   749   750     5 
  746   749   751     5 
  746   749   752     5 
  750   749   751     5 
  750   749   752     5 
  751   749   752     5 
  749   752   753     5 
  749   752   754     5 
  749   752   755     5 
  753   752   754     5 
  753   752   755     5 
  754   752   755     5 
  752   755   756     5 
  752   755   757     5 
  752   755   758     5 
  756   755   757     5 
  756   755   758     5 
  757   755   758     5 
  755   758   759     5 
  755   758   760     5 
  755   758   761     5 
  759   758   760     5 
  759   758   761     5 
  760   758   761     5 
  712   762   763     5 
  712   762   764     5 
  712   762   765     5 
  763   762   764     5 
  763   762   765     5 
  764   762   765     5 
  762   765   766     5 
  762   765   767     5 
  762   765   768     5 
  766   765   767     5 
  766   765   768     5 
  767   765   768     5 
  765   768   769     5 
  765   768   770     5 
  765   768   771     5 
  769   768   770     5 
  769   768   771     5 
  770   768   771     5 
  768   771   772     5 
  768   771   773     5 
  768   771   774     5 
  772   771   773     5 
  772   771   774     5 
  773   771   774     5 
  771   774   775     5 
  771   774   776     5 
  771   774   777     5 
  775   774   776     5 
  775   774   777     5 
  776   774   777     5 
  774   777   778     5 
  774   777   779     5 
  774   777   780     5 
  778   777   779     5 
  778   777   780     5 
  779   777   780     5 
  777   780   781     5 
  777   780   782     5 
  777   780   783     5 
  781   780   782     5 
  781   780   783     5 
  782   780   783     5 
  780   783   784     5 
  780   783   785     5 
  780   783   786     5 
  784   783   785     5 
  784   783   786     5 
  785   783   786     5 
  783   786   787     5 
  783   786   788     5 
  783   786   789     5 
  787   786   788     5 
  787   786   789     5 
  788   786   789     5 
  786   789   790     5 
  786   789   791     5 
  786   789   792     5 
  790   789   791     5 
  790   789   792     5 
  791   789   792     5 
  789   792   793     5 
  789   792   794     5 
  789   792   795     5 
  793   792   794     5 
  793   792   795     5 
  794   792   795     5 
  792   795   796     5 
  792   795   797     5 
  792   795   798     5 
  796   795   797     5 
  796   795   798     5 
  797   795   798     5 
  795   798   799     5 
  795   798   800     5 
  795   798   801     5 
  799   798   800     5 
  799   798   801     5 
  800   798   801     5 
  798   801   802     5 
  798   801   803     5 
  798   801   804     5 
  802   801   803     5 
  802   801   804     5 
  803   801   804     5 
  806   805   809     5 
  806   805   813     5 
  806   805   817     5 
  809   805   813     5 
  809   805   817     5 
  813   805   817     5 
  805   806   807     5 
  805   806   808     5 
  805   806   821     5 
  807   806   808     5 
  807   806   821     5 
  808   806   821     5 
  805   809   810     5 
  805   809   811     5 
  805   809   812     5 
  810   809   811     5 
  810   809   812     5 
  811   809   812     5 
  805   813   814     5 
  805   813   815     5 
  805   813   816     5 
  814   813   815     5 
  814   813   816     5 
  815   813   816     5 
  805   817   818     5 
  805   817   819     5 
  805   817   820     5 
  818   817   819     5 
  818   817   820     5 
  819   817   820     5 
  806   821   822     5 
  806   821   823     5 
  806   821   827     5 
  822   821   823     5 
  822   821   827     5 
  823   821   827     5 
  825   824   826     5 
  825   824   827     5 
  825   824   828     5 
  826   824   827     5 
  826   824   828     5 
  827   824   828     5 
  821   827   824     5 
  824   828   829     5 
  828   829   830     5 
  828   829   831     5 
  828   829   832     5 
  830   829   831     5 
  830   829   832     5 
  831   829   832     5 
  829   832   833     5 
  829   832   834     5 
  829   832   840     5 
  833   832   834     5 
  833   832   840     5 
  834   832   840     5 
  832   834   835     5 
  834   835   836     5 
  834   835   837     5 
  836   835   837     5 
  835   837   838     5 
  835   837   839     5 
  835   837   849     5 
  838   837   839     5 
  838   837   849     5 
  839   837   849     5 
  832   840   841     5 
  832   840   842     5 
  832   840   843     5 
  841   840   842     5 
  841   840   843     5 
  842   840   843     5 
  840   843   844     5 
  843   844   845     5 
  843   844   846     5 
  845   844   846     5 
  844   846   847     5 
  844   846   848     5 
  844   846   896     5 
  847   846   848     5 
  847   846   896     5 
  848   846   896     5 
  837   849   850     5 
  837   849   851     5 
  837   849   852     5 
  850   849   851     5 
  850   849   852     5 
  851   849   852     5 
  849   852   853     5 
  849   852   854     5 
  849   852   855     5 
  853   852   854     5 
  853   852   855     5 
  854   852   855     5 
  852   855   856     5 
  852   855   857     5 
  852   855   858     5 
  856   855   857     5 
  856   855   858     5 
  857   855   858     5 
  855   858   859     5 
  855   858   860     5 
  855   858   861     5 
  859   858   860     5 
  859   858   861     5 
  860   858   861     5 
  858   861   862     5 
  858   861   863     5 
  858   861   864     5 
  862   861   863     5 
  862   861   864     5 
  863   861   864     5 
  861   864   865     5 
  861   864   866     5 
  861   864   867     5 
  865   864   866     5 
  865   864   867     5 
  866   864   867     5 
  864   867   868     5 
  864   867   869     5 
  868   867   869     5 
  867   869   870     5 
  867   869   871     5 
  870   869   871     5 
  869   871   872     5 
  869   871   873     5 
  869   871   874     5 
  872   871   873     5 
  872   871   874     5 
  873   871   874     5 
  871   874   875     5 
  871   874   876     5 
  871   874   877     5 
  875   874   876     5 
  875   874   877     5 
  876   874   877     5 
  874   877   878     5 
  874   877   879     5 
  874   877   880     5 
  878   877   879     5 
  878   877   880     5 
  879   877   880     5 
  877   880   881     5 
  877   880   882     5 
  877   880   883     5 
  881   880   882     5 
  881   880   883     5 
  882   880   883     5 
  880   883   884     5 
  880   883   885     5 
  880   883   886     5 
  884   883   885     5 
  884   883   886     5 
  885   883   886     5 
  883   886   887     5 
  883   886   888     5 
  883   886   889     5 
  887   886   888     5 
  887   886   889     5 
  888   886   889     5 
  886   889   890     5 
  886   889   891     5 
  886   889   892     5 
  890   889   891     5 
  890   889   892     5 
  891   889   892     5 
  889   892   893     5 
  889   892   894     5 
  889   892   895     5 
  893   892   894     5 
  893   892   895     5 
  894   892   895     5 
  846   896   897     5 
  846   896   898     5 
  846   896   899     5 
  897   896   898     5 
  897   896   899     5 
  898   896   899     5 
  896   899   900     5 
  896   899   901     5 
  896   899   902     5 
  900   899   901     5 
  900   899   902     5 
  901   899   902     5 
  899   902   903     5 
  899   902   904     5 
  899   902   905     5 
  903   902   904     5 
  903   902   905     5 
  904   902   905     5 
  902   905   906     5 
  902   905   907     5 
  902   905   908     5 
  906   905   907     5 
  906   905   908     5 
  907   905   908     5 
  905   908   909     5 
  905   908   910     5 
  905   908   911     5 
  909   908   910     5 
  909   908   911     5 
  910   908   911     5 
  908   911   912     5 
  908   911   913     5 
  908   911   914     5 
  912   911   913     5 
  912   911   914     5 
  913   911   914     5 
  911   914   915     5 
  911   914   916     5 
  911   914   917     5 
  915   914   916     5 
  915   914   917     5 
  916   914   917     5 
  914   917   918     5 
  914   917   919     5 
  914   917   920     5 
  918   917   919     5 
  918   917   920     5 
  919   917   920     5 
  917   920   921     5 
  917   920   922     5 
  917   920   923     5 
  921   920   922     5 
  921   920   923     5 
  922   920   923     5 
  920   923   924     5 
  920   923   925     5 
  920   923   926     5 
  924   923   925     5 
  924   923   926     5 
  925   923   926     5 
  923   926   927     5 
  923   926   928     5 
  923   926   929     5 
  927   926   928     5 
  927   926   929     5 
  928   926   929     5 
  926   929   930     5 
  926   929   931     5 
  926   929   932     5 
  930   929   931     5 
  930   929   932     5 
  931   929   932     5 
  929   932   933     5 
  929   932   934     5 
  929   932   935     5 
  933   932   934     5 
  933   932   935     5 
  934   932   935     5 
  932   935   936     5 
  932   935   937     5 
  932   935   938     5 
  936   935   937     5 
  936   935   938     5 
  937   935   938     5 
  940   939   943     5 
  940   939   947     5 
  940   939   951     5 
  943   939   947     5 
  943   939   951     5 
  947   939   951     5 
  939   940   941     5 
  939   940   942     5 
  939   940   955     5 
  941   940   942     5 
  941   940   955     5 
  942   940   955     5 
  939   943   944     5 
  939   943   945     5 
  939   943   946     5 
  944   943   945     5 
  944   943   946     5 
  945   943   946     5 
  939   947   948     5 
  939   947   949     5 
  939   947   950     5 
  948   947   949     5 
  948   947   950     5 
  949   947   950     5 
  939   951   952     5 
  939   951   953     5 
  939   951   954     5 
  952   951   953     5 
  952   951   954     5 
  953   951   954     5 
  940   955   956     5 
  940   955   957     5 
  940   955   961     5 
  956   955   957     5 
  956   955   961     5 
  957   955   961     5 
  959   958   960     5 
  959   958   961     5 
  959   958   962     5 
  960   958   961     5 
  960   958   962     5 
  961   958   962     5 
  955   961   958     5 
  958   962   963     5 
  962   963   964     5 
  962   963   965     5 
  962   963   966     5 
  964   963   965     5 
  964   963   966     5 
  965   963   966     5 
  963   966   967     5 
  963   966   968     5 
  963   966   974     5 
  967   966   968     5 
  967   966   974     5 
  968   966   974     5 
  966   968   969     5 
  968   969   970     5 
  968   969   971     5 
  970   969   971     5 
  969   971   972     5 
  969   971   973     5 
  969   971   983     5 
  972   971   973     5 
  972   971   983     5 
  973   971   983     5 
  966   974   975     5 
  966   974   976     5 
  966   974   977     5 
  975   974   976     5 
  975   974   977     5 
  976   974   977     5 
  974   977   978     5 
  977   978   979     5 
  977   978   980     5 
  979   978   980     5 
  978   980   981     5 
  978   980   982     5 
  978   980  1030     5 
  981   980   982     5 
  981   980  1030     5 
  982   980  1030     5 
  971   983   984     5 
  971   983   985     5 
  971   983   986     5 
  984   983   985     5 
  984   983   986     5 
  985   983   986     5 
  983   986   987     5 
  983   986   988     5 
  983   986   989     5 
  987   986   988     5 
  987   986   989     5 
  988   986   989     5 
  986   989   990     5 
  986   989   991     5 
  986   989   992     5 
  990   989   991     5 
  990   989   992     5 
  991   989   992     5 
  989   992   993     5 
  989   992   994     5 
  989   992   995     5 
  993   992   994     5 
  993   992   995     5 
  994   992   995     5 
  992   995   996     5 
  992   995   997     5 
  992   995   998     5 
  996   995   997     5 
  996   995   998     5 
  997   995   998     5 
  995   998   999     5 
  995   998  1000     5 
  995   998  1001     5 
  999   998  1000     5 
  999   998  1001     5 
 1000   998  1001     5 
  998  1001  1002     5 
  998  1001  1003     5 
 1002  1001  1003     5 
 1001  1003  1004     5 
 1001  1003  1005     5 
 1004  1003  1005     5 
 1003  1005  1006     5 
 1003  1005  1007     5 
 1003  1005  1008     5 
 1006  1005  1007     5 
 1006  1005  1008     5 
 1007  1005  1008     5 
 1005  1008  1009     5 
 1005  1008  1010     5 
 1005  1008  1011     5 
 1009  1008  1010     5 
 1009  1008  1011     5 
 1010  1008  1011     5 
 1008  1011  1012     5 
 1008  1011  1013     5 
 1008  1011  1014     5 
 1012  1011  1013     5 
 1012  1011  1014     5 
 1013  1011  1014     5 
 1011  1014  1015     5 
 1011  1014  1016     5 
 1011  1014  1017     5 
 1015  1014  1016     5 
 1015  1014  1017     5 
 1016  1014  1017     5 
 1014  1017  1018     5 
 1014  1017  1019     5 
 1014  1017  1020     5 
 1018  1017  1019     5 
 1018  1017  1020     5 
 1019  1017  1020     5 
 1017  1020  1021     5 
 1017  1020  1022     5 
 1017  1020  1023     5 
 1021  1020  1022     5 
 1021  1020  1023     5 
 1022  1020  1023     5 
 1020  1023  1024     5 
 1020  1023  1025     5 
 1020  1023  1026     5 
 1024  1023  1025     5 
 1024  1023  1026     5 
 1025  1023  1026     5 
 1023  1026  1027     5 
 1023  1026  1028     5 
 1023  1026  1029     5 
 1027  1026  1028     5 
 1027  1026  1029     5 
 1028  1026  1029     5 
  980  1030  1031     5 
  980  1030  1032     5 
  980  1030  1033     5 
 1031  1030  1032     5 
 1031  1030  1033     5 
 1032  1030  1033     5 
 1030  1033  1034     5 
 1030  1033  1035     5 
 1030  1033  1036     5 
 1034  1033  1035     5 
 1034  1033  1036     5 
 1035  1033  1036     5 
 1033  1036  1037     5 
 1033  1036  1038     5 
 1033  1036  1039     5 
 1037  1036  1038     5 
 1037  1036  1039     5 
 1038  1036  1039     5 
 1036  1039  1040     5 
 1036  1039  1041     5 
 1036  1039  1042     5 
 1040  1039  1041     5 
 1040  1039  1042     5 
 1041  1039  1042     5 
 1039  1042  1043     5 
 1039  1042  1044     5 
 1039  1042  1045     5 
 1043  1042  1044     5 
 1043  1042  1045     5 
 1044  1042  1045     5 
 1042  1045  1046     5 
 1042  1045  1047     5 
 1042  1045  1048     5 
 1046  1045  1047     5 
 1046  1045  1048     5 
 1047  1045  1048     5 
 1045  1048  1049     5 
 1045  1048  1050     5 
 1045  1048  1051     5 
 1049  1048  1050     5 
 1049  1048  1051     5 
 1050  1048  1051     5 
 1048  1051  1052     5 
 1048  1051  1053     5 
 1048  1051  1054     5 
 1052  1051  1053     5 
 1052  1051  1054     5 
 1053  1051  1054     5 
 1051  1054  1055     5 
 1051  1054  1056     5 
 1051  1054  1057     5 
 1055  1054  1056     5 
 1055  1054  1057     5 
 1056  1054  1057     5 
 1054  1057  1058     5 
 1054  1057  1059     5 
 1054  1057  1060     5 
 1058  1057  1059     5 
 1058  1057  1060     5 
 1059  1057  1060     5 
 1057  1060  1061     5 
 1057  1060  1062     5 
 1057  1060  1063     5 
 1061  1060  1062     5 
 1061  1060  1063     5 
 1062  1060  1063     5 
 1060  1063  1064     5 
 1060  1063  1065     5 
 1060  1063  1066     5 
 1064  1063  1065     5 
 1064  1063  1066     5 
 1065  1063  1066     5 
 1063  1066  1067     5 
 1063  1066  1068     5 
 1063  1066  1069     5 
 1067  1066  1068     5 
 1067  1066  1069     5 
 1068  1066  1069     5 
 1066  1069  1070     5 
 1066  1069  1071     5 
 1066  1069  1072     5 
 1070  1069  1071     5 
 1070  1069  1072     5 
 1071  1069  1072     5 
 1074  1073  1077     5 
 1074  1073  1081     5 
 1074  1073  1085     5 
 1077  1073  1081     5 
 1077  1073  1085     5 
 1081  1073  1085     5 
 1073  1074  1075     5 
 1073  1074  1076     5 
 1073  1074  1089     5 
 1075  1074  1076     5 
 1075  1074  1089     5 
 1076  1074  1089     5 
 1073  1077  1078     5 
 1073  1077  1079     5 
 1073  1077  1080     5 
 1078  1077  1079     5 
 1078  1077  1080     5 
 1079  1077  1080     5 
 1073  1081  1082     5 
 1073  1081  1083     5 
 1073  1081  1084     5 
 1082  1081  1083     5 
 1082  1081  1084     5 
 1083  1081  1084     5 
 1073  1085  1086     5 
 1073  1085  1087     5 
 1073  1085  1088     5 
 1086  1085  1087     5 
 1086  1085  1088     5 
 1087  1085  1088     5 
 1074  1089  1090     5 
 1074  1089  1091     5 
 1074  1089  1095     5 
 1090  1089  1091     5 
 1090  1089  1095     5 
 1091  1089  1095     5 
 1093  1092  1094     5 
 1093  1092  1095     5 
 1093  1092  1096     5 
 1094  1092  1095     5 
 1094  1092  1096     5 
 1095  1092  1096     5 
 1089  1095  1092     5 
 1092  1096  1097     5 
 1096  1097  1098     5 
 1096  1097  1099     5 
 1096  1097  1100     5 
 1098  1097  1099     5 
 1098  1097  1100     5 
 1099  1097  1100     5 
 1097  1100  1101     5 
 1097  1100  1102     5 
 1097  1100  1108     5 
 1101  1100  1102     5 
 1101  1100  1108     5 
 1102  1100  1108     5 
 1100  1102  1103     5 
 1102  1103  1104     5 
 1102  1103  1105     5 
 1104  1103  1105     5 
 1103  1105  1106     5 
 1103  1105  1107     5 
 1103  1105  1117     5 
 1106  1105  1107     5 
 1106  1105  1117     5 
 1107  1105  1117     5 
 1100  1108  1109     5 
 1100  1108  1110     5 
 1100  1108  1111     5 
 1109  1108  1110     5 
 1109  1108  1111     5 
 1110  1108  1111     5 
 1108  1111  1112     5 
 1111  1112  1113     5 
 1111  1112  1114     5 
 1113  1112  1114     5 
 1112  1114  1115     5 
 1112  1114  1116     5 
 1112  1114  1164     5 
 1115  1114  1116     5 
 1115  1114  1164     5 
 1116  1114  1164     5 
 1105  1117  1118     5 
 1105  1117  1119     5 
 1105  1117  1120     5 
 1118  1117  1119     5 
 1118  1117  1120     5 
 1119  1117  1120     5 
 1117  1120  1121     5 
 1117  1120  1122     5 
 1117  1120  1123     5 
 1121  1120  1122     5 
 1121  1120  1123     5 
 1122  1120  1123     5 
 1120  1123  1124     5 
 1120  1123  1125     5 
 1120  1123  1126     5 
 1124  1123  1125     5 
 1124  1123  1126     5 
 1125  1123  1126     5 
 1123  1126  1127     5 
 1123  1126  1128     5 
 1123  1126  1129     5 
 1127  1126  1128     5 
 1127  1126  1129     5 
 1128  1126  1129     5 
 1126  1129  1130     5 
 1126  1129  1131     5 
 1126  1129  1132     5 
 1130  1129  1131     5 
 1130  1129  1132     5 
 1131  1129  1132     5 
 1129  1132  1133     5 
 1129  1132  1134     5 
 1129  1132  1135     5 
 1133  1132  1134     5 
 1133  1132  1135     5 
 1134  1132  1135     5 
 1132  1135  1136     5 
 1132  1135  1137     5 
 1136  1135  1137     5 
 1135  1137  1138     5 
 1135  1137  1139     5 
 1138  1137  1139     5 
 1137  1139  1140     5 
 1137  1139  1141     5 
 1137  1139  1142     5 
 1140  1139  1141     5 
 1140  1139  1142     5 
 1141  1139  1142     5 
 1139  1142  1143     5 
 1139  1142  1144     5 
 1139  1142  1145     5 
 1143  1142  1144     5 
 1143  1142  1145     5 
 1144  1142  1145     5 
 1142  1145  1146     5 
 1142  1145  1147     5 
 1142  1145  1148     5 
 1146  1145  1147     5 
 1146  1145  1148     5 
 1147  1145  1148     5 
 1145  1148  1149     5 
 1145  1148  1150     5 
 1145  1148  1151     5 
 1149  1148  1150     5 
 1149  1148  1151     5 
 1150  1148  1151     5 
 1148  1151  1152     5 
 1148  1151  1153     5 
 1148  1151  1154     5 
 1152  1151  1153     5 
 1152  1151  1154     5 
 1153  1151  1154     5 
 1151  1154  1155     5 
 1151  1154  1156     5 
 1151  1154  1157     5 
 1155  1154  1156     5 
 1155  1154  1157     5 
 1156  1154  1157     5 
 1154  1157  1158     5 
 1154  1157  1159     5 
 1154  1157  1160     5 
 1158  1157  1159     5 
 1158  1157  1160     5 
 1159  1157  1160     5 
 1157  1160  1161     5 
 1157  1160  1162     5 
 1157  1160  1163     5 
 1161  1160  1162     5 
 1161  1160  1163     5 
 1162  1160  1163     5 
 1114  1164  1165     5 
 1114  1164  1166     5 
 1114  1164  1167     5 
 1165  1164  1166     5 
 1165  1164  1167     5 
 1166  1164  1167     5 
 1164  1167  1168     5 
 1164  1167  1169     5 
 1164  1167  1170     5 
 1168  1167  1169     5 
 1168  1167  1170     5 
 1169  1167  1170     5 
 1167  1170  1171     5 
 1167  1170  1172     5 
 1167  1170  1173     5 
 1171  1170  1172     5 
 1171  1170  1173     5 
 1172  1170  1173     5 
 1170  1173  1174     5 
 1170  1173  1175     5 
 1170  1173  1176     5 
 1174  1173  1175     5 
 1174  1173  1176     5 
 1175  1173  1176     5 
 1173  1176  1177     5 
 1173  1176  1178     5 
 1173  1176  1179     5 
 1177  1176  1178     5 
 1177  1176  1179     5 
 1178  1176  1179     5 
 1176  1179  1180     5 
 1176  1179  1181     5 
 1176  1179  1182     5 
 1180  1179  1181     5 
 1180  1179  1182     5 
 1181  1179  1182     5 
 1179  1182  1183     5 
 1179  1182  1184     5 
 1179  1182  1185     5 
 1183  1182  1184     5 
 1183  1182  1185     5 
 1184  1182  1185     5 
 1182  1185  1186     5 
 1182  1185  1187     5 
 1182  1185  1188     5 
 1186  1185  1187     5 
 1186  1185  1188     5 
 1187  1185  1188     5 
 1185  1188  1189     5 
 1185  1188  1190     5 
 1185  1188  1191     5 
 1189  1188  1190     5 
 1189  1188  1191     5 
 1190  1188  1191     5 
 1188  1191  1192     5 
 1188  1191  1193     5 
 1188  1191  1194     5 
 1192  1191  1193     5 
 1192  1191  1194     5 
 1193  1191  1194     5 
 1191  1194  1195     5 
 1191  1194  1196     5 
 1191  1194  1197     5 
 1195  1194  1196     5 
 1195  1194  1197     5 
 1196  1194  1197     5 
 1194  1197  1198     5 
 1194  1197  1199     5 
 1194  1197  1200     5 
 1198  1197  1199     5 
 1198  1197  1200     5 
 1199  1197  1200     5 
 1197  1200  1201     5 
 1197  1200  1202     5 
 1197  1200  1203     5 
 1201  1200  1202     5 
 1201  1200  1203     5 
 1202  1200  1203     5 
 1200  1203  1204     5 
 1200  1203  1205     5 
 1200  1203  1206     5 
 1204  1203  1205     5 
 1204  1203  1206     5 
 1205  1203  1206     5 
 1208  1207  1211     5 
 1208  1207  1215     5 
 1208  1207  1219     5 
 1211  1207  1215     5 
 1211  1207  1219     5 
 1215  1207  1219     5 
 1207  1208  1209     5 
 1207  1208  1210     5 
 1207  1208  1223     5 
 1209  1208  1210     5 
 1209  1208  1223     5 
 1210  1208  1223     5 
 1207  1211  1212     5 
 1207  1211  1213     5 
 1207  1211  1214     5 
 1212  1211  1213     5 
 1212  1211  1214     5 
 1213  1211  1214     5 
 1207  1215  1216     5 
 1207  1215  1217     5 
 1207  1215  1218     5 
 1216  1215  1217     5 
 1216  1215  1218     5 
 1217  1215  1218     5 
 1207  1219  1220     5 
 1207  1219  1221     5 
 1207  1219  1222     5 
 1220  1219  1221     5 
 1220  1219  1222     5 
 1221  1219  1222     5 
 1208  1223  1224     5 
 1208  1223  1225     5 
 1208  1223  1229     5 
 1224  1223  1225     5 
 1224  1223  1229     5 
 1225  1223  1229     5 
 1227  1226  1228     5 
 1227  1226  1229     5 
 1227  1226  1230     5 
 1228  1226  1229     5 
 1228  1226  1230     5 
 1229  1226  1230     5 
 1223  1229  1226     5 
 1226  1230  1231     5 
 1230  1231  1232     5 
 1230  1231  1233     5 
 1230  1231  1234     5 
 1232  1231  1233     5 
 1232  1231  1234     5 
 1233  1231  1234     5 
 1231  1234  1235     5 
 1231  1234  1236     5 
 1231  1234  1242     5 
 1235  1234  1236     5 
 1235  1234  1242     5 
 1236  1234  1242     5 
 1234  1236  1237     5 
 1236  1237  1238     5 
 1236  1237  1239     5 
 1238  1237  1239     5 
 1237  1239  1240     5 
 1237  1239  1241     5 
 1237  1239  1251     5 
 1240  1239  1241     5 
 1240  1239  1251     5 
 1241  1239  1251     5 
 1234  1242  1243     5 
 1234  1242  1244     5 
 1234  1242  1245     5 
 1243  1242  1244     5 
 1243  1242  1245     5 
 1244  1242  1245     5 
 1242  1245  1246     5 
 1245  1246  1247     5 
 1245  1246  1248     5 
 1247  1246  1248     5 
 1246  1248  1249     5 
 1246  1248  1250     5 
 1246  1248  1298     5 
 1249  1248  1250     5 
 1249  1248  1298     5 
 1250  1248  1298     5 
 1239  1251  1252     5 
 1239  1251  1253     5 
 1239  1251  1254     5 
 1252  1251  1253     5 
 1252  1251  1254     5 
 1253  1251  1254     5 
 1251  1254  1255     5 
 1251  1254  1256     5 
 1251  1254  1257     5 
 1255  1254  1256     5 
 1255  1254  1257     5 
 1256  1254  1257     5 
 1254  1257  1258     5 
 1254  1257  1259     5 
 1254  1257  1260     5 
 1258  1257  1259     5 
 1258  1257  1260     5 
 1259  1257  1260     5 
 1257  1260  1261     5 
 1257  1260  1262     5 
 1257  1260  1263     5 
 1261  1260  1262     5 
 1261  1260  1263     5 
 1262  1260  1263     5 
 1260  1263  1264     5 
 1260  1263  1265     5 
 1260  1263  1266     5 
 1264  1263  1265     5 
 1264  1263  1266     5 
 1265  1263  1266     5 
 1263  1266  1267     5 
 1263  1266  1268     5 
 1263  1266  1269     5 
 1267  1266  1268     5 
 1267  1266  1269     5 
 1268  1266  1269     5 
 1266  1269  1270     5 
 1266  1269  1271     5 
 1270  1269  1271     5 
 1269  1271  1272     5 
 1269  1271  1273     5 
 1272  1271  1273     5 
 1271  1273  1274     5 
 1271  1273  1275     5 
 1271  1273  1276     5 
 1274  1273  1275     5 
 1274  1273  1276     5 
 1275  1273  1276     5 
 1273  1276  1277     5 
 1273  1276  1278     5 
 1273  1276  1279     5 
 1277  1276  1278     5 
 1277  1276  1279     5 
 1278  1276  1279     5 
 1276  1279  1280     5 
 1276  1279  1281     5 
 1276  1279  1282     5 
 1280  1279  1281     5 
 1280  1279  1282     5 
 1281  1279  1282     5 
 1279  1282  1283     5 
 1279  1282  1284     5 
 1279  1282  1285     5 
 1283  1282  1284     5 
 1283  1282  1285     5 
 1284  1282  1285     5 
 1282  1285  1286     5 
 1282  1285  1287     5 
 1282  1285  1288     5 
 1286  1285  1287     5 
 1286  1285  1288     5 
 1287  1285  1288     5 
 1285  1288  1289     5 
 1285  1288  1290     5 
 1285  1288  1291     5 
 1289  1288  1290     5 
 1289  1288  1291     5 
 1290  1288  1291     5 
 1288  1291  1292     5 
 1288  1291  1293     5 
 1288  1291  1294     5 
 1292  1291  1293     5 
 1292  1291  1294     5 
 1293  1291  1294     5 
 1291  1294  1295     5 
 1291  1294  1296     5 
 1291  1294  1297     5 
 1295  1294  1296     5 
 1295  1294  1297     5 
 1296  1294  1297     5 
 1248  1298  1299     5 
 1248  1298  1300     5 
 1248  1298  1301     5 
 1299  1298  1300     5 
 1299  1298  1301     5 
 1300  1298  1301     5 
 1298  1301  1302     5 
 1298  1301  1303     5 
 1298  1301  1304     5 
 1302  1301  1303     5 
 1302  1301  1304     5 
 1303  1301  1304     5 
 1301  1304  1305     5 
 1301  1304  1306     5 
 1301  1304  1307     5 
 1305  1304  1306     5 
 1305  1304  1307     5 
 1306  1304  1307     5 
 1304  1307  1308     5 
 1304  1307  1309     5 
 1304  1307  1310     5 
 1308  1307  1309     5 
 1308  1307  1310     5 
 1309  1307  1310     5 
 1307  1310  1311     5 
 1307  1310  1312     5 
 1307  1310  1313     5 
 1311  1310  1312     5 
 1311  1310  1313     5 
 1312  1310  1313     5 
 1310  1313  1314     5 
 1310  1313  1315     5 
 1310  1313  1316     5 
 1314  1313  1315     5 
 1314  1313  1316     5 
 1315  1313  1316     5 
 1313  1316  1317     5 
 1313  1316  1318     5 
 1313  1316  1319     5 
 1317  1316  1318     5 
 1317  1316  1319     5 
 1318  1316  1319     5 
 1316  1319  1320     5 
 1316  1319  1321     5 
 1316  1319  1322     5 
 1320  1319  1321     5 
 1320  1319  1322     5 
 1321  1319  1322     5 
 1319  1322  1323     5 
 1319  1322  1324     5 
 1319  1322  1325     5 
 1323  1322  1324     5 
 1323  1322  1325     5 
 1324  1322  1325     5 
 1322  1325  1326     5 
 1322  1325  1327     5 
 1322  1325  1328     5 
 1326  1325  1327     5 
 1326  1325  1328     5 
 1327  1325  1328     5 
 1325  1328  1329     5 
 1325  1328  1330     5 
 1325  1328  1331     5 
 1329  1328  1330     5 
 1329  1328  1331     5 
 1330  1328  1331     5 
 1328  1331  1332     5 
 1328  1331  1333     5 
 1328  1331  1334     5 
 1332  1331  1333     5 
 1332  1331  1334     5 
 1333  1331  1334     5 
 1331  1334  1335     5 
 1331  1334  1336     5 
 1331  1334  1337     5 
 1335  1334  1336     5 
 1335  1334  1337     5 
 1336  1334  1337     5 
 1334  1337  1338     5 
 1334  1337  1339     5 
 1334  1337  1340     5 
 1338  1337  1339     5 
 1338  1337  1340     5 
 1339  1337  1340     5 
 1342  1341  1345     5 
 1342  1341  1349     5 
 1342  1341  1353     5 
 1345  1341  1349     5 
 1345  1341  1353     5 
 1349  1341  1353     5 
 1341  1342  1343     5 
 1341  1342  1344     5 
 1341  1342  1357     5 
 1343  1342  1344     5 
 1343  1342  1357     5 
 1344  1342  1357     5 
 1341  1345  1346     5 
 1341  1345  1347     5 
 1341  1345  1348     5 
 1346  1345  1347     5 
 1346  1345  1348     5 
 1347  1345  1348     5 
 1341  1349  1350     5 
 1341  1349  1351     5 
 1341  1349  1352     5 
 1350  1349  1351     5 
 1350  1349  1352     5 
 1351  1349  1352     5 
 1341  1353  1354     5 
 1341  1353  1355     5 
 1341  1353  1356     5 
 1354  1353  1355     5 
 1354  1353  1356     5 
 1355  1353  1356     5 
 1342  1357  1358     5 
 1342  1357  1359     5 
 1342  1357  1363     5 
 1358  1357  1359     5 
 1358  1357  1363     5 
 1359  1357  1363     5 
 1361  1360  1362     5 
 1361  1360  1363     5 
 1361  1360  1364     5 
 1362  1360  1363     5 
 1362  1360  1364     5 
 1363  1360  1364     5 
 1357  1363  1360     5 
 1360  1364  1365     5 
 1364  1365  1366     5 
 1364  1365  1367     5 
 1364  1365  1368     5 
 1366  1365  1367     5 
 1366  1365  1368     5 
 1367  1365  1368     5 
 1365  1368  1369     5 
 1365  1368  1370     5 
 1365  1368  1376     5 
 1369  1368  1370     5 
 1369  1368  1376     5 
 1370  1368  1376     5 
 1368  1370  1371     5 
 1370  1371  1372     5 
 1370  1371  1373     5 
 1372  1371  1373     5 
 1371  1373  1374     5 
 1371  1373  1375     5 
 1371  1373  1385     5 
 1374  1373  1375     5 
 1374  1373  1385     5 
 1375  1373  1385     5 
 1368  1376  1377     5 
 1368  1376  1378     5 
 1368  1376  1379     5 
 1377  1376  1378     5 
 1377  1376  1379     5 
 1378  1376  1379     5 
 1376  1379  1380     5 
 1379  1380  1381     5 
 1379  1380  1382     5 
 1381  1380  1382     5 
 1380  1382  1383     5 
 1380  1382  1384     5 
 1380  1382  1432     5 
 1383  1382  1384     5 
 1383  1382  1432     5 
 1384  1382  1432     5 
 1373  1385  1386     5 
 1373  1385  1387     5 
 1373  1385  1388     5 
 1386  1385  1387     5 
 1386  1385  1388     5 
 1387  1385  1388     5 
 1385  1388  1389     5 
 1385  1388  1390     5 
 1385  1388  1391     5 
 1389  1388  1390     5 
 1389  1388  1391     5 
 1390  1388  1391     5 
 1388  1391  1392     5 
 1388  1391  1393     5 
 1388  1391  1394     5 
 1392  1391  1393     5 
 1392  1391  1394     5 
 1393  1391  1394     5 
 1391  1394  1395     5 
 1391  1394  1396     5 
 1391  1394  1397     5 
 1395  1394  1396     5 
 1395  1394  1397     5 
 1396  1394  1397     5 
 1394  1397  1398     5 
 1394  1397  1399     5 
 1394  1397  1400     5 
 1398  1397  1399     5 
 1398  1397  1400     5 
 1399  1397  1400     5 
 1397  1400  1401     5 
 1397  1400  1402     5 
 1397  1400  1403     5 
 1401  1400  1402     5 
 1401  1400  1403     5 
 1402  1400  1403     5 
 1400  1403  1404     5 
 1400  1403  1405     5 
 1404  1403  1405     5 
 1403  1405  1406     5 
 1403  1405  1407     5 
 1406  1405  1407     5 
 1405  1407  1408     5 
 1405  1407  1409     5 
 1405  1407  1410     5 
 1408  1407  1409     5 
 1408  1407  1410     5 
 1409  1407  1410     5 
 1407  1410  1411     5 
 1407  1410  1412     5 
 1407  1410  1413     5 
 1411  1410  1412     5 
 1411  1410  1413     5 
 1412  1410  1413     5 
 1410  1413  1414     5 
 1410  1413  1415     5 
 1410  1413  1416     5 
 1414  1413  1415     5 
 1414  1413  1416     5 
 1415  1413  1416     5 
 1413  1416  1417     5 
 1413  1416  1418     5 
 1413  1416  1419     5 
 1417  1416  1418     5 
 1417  1416  1419     5 
 1418  1416  1419     5 
 1416  1419  1420     5 
 1416  1419  1421     5 
 1416  1419  1422     5 
 1420  1419  1421     5 
 1420  1419  1422     5 
 1421  1419  1422     5 
 1419  1422  1423     5 
 1419  1422  1424     5 
 1419  1422  1425     5 
 1423  1422  1424     5 
 1423  1422  1425     5 
 1424  1422  1425     5 
 1422  1425  1426     5 
 1422  1425  1427     5 
 1422  1425  1428     5 
 1426  1425  1427     5 
 1426  1425  1428     5 
 1427  1425  1428     5 
 1425  1428  1429     5 
 1425  1428  1430     5 
 1425  1428  1431     5 
 1429  1428  1430     5 
 1429  1428  1431     5 
 1430  1428  1431     5 
 1382  1432  1433     5 
 1382  1432  1434     5 
 1382  1432  1435     5 
 1433  1432  1434     5 
 1433  1432  1435     5 
 1434  1432  1435     5 
 1432  1435  1436     5 
 1432  1435  1437     5 
 1432  1435  1438     5 
 1436  1435  1437     5 
 1436  1435  1438     5 
 1437  1435  1438     5 
 1435  1438  1439     5 
 1435  1438  1440     5 
 1435  1438  1441     5 
 1439  1438  1440     5 
 1439  1438  1441     5 
 1440  1438  1441     5 
 1438  1441  1442     5 
 1438  1441  1443     5 
 1438  1441  1444     5 
 1442  1441  1443     5 
 1442  1441  1444     5 
 1443  1441  1444     5 
 1441  1444  1445     5 
 1441  1444  1446     5 
 1441  1444  1447     5 
 1445  1444  1446     5 
 1445  1444  1447     5 
 1446  1444  1447     5 
 1444  1447  1448     5 
 1444  1447  1449     5 
 1444  1447  1450     5 
 1448  1447  1449     5 
 1448  1447  1450     5 
 1449  1447  1450     5 
 1447  1450  1451     5 
 1447  1450  1452     5 
 1447  1450  1453     5 
 1451  1450  1452     5 
 1451  1450  1453     5 
 1452  1450  1453     5 
 1450  1453  1454     5 
 1450  1453  1455     5 
 1450  1453  1456     5 
 1454  1453  1455     5 
 1454  1453  1456     5 
 1455  1453  1456     5 
 1453  1456  1457     5 
 1453  1456  1458     5 
 1453  1456  1459     5 
 1457  1456  1458     5 
 1457  1456  1459     5 
 1458  1456  1459     5 
 1456  1459  1460     5 
 1456  1459  1461     5 
 1456  1459  1462     5 
 1460  1459  1461     5 
 1460  1459  1462     5 
 1461  1459  1462     5 
 1459  1462  1463     5 
 1459  1462  1464     5 
 1459  1462  1465     5 
 1463  1462  1464     5 
 1463  1462  1465     5 
 1464  1462  1465     5 
 1462  1465  1466     5 
 1462  1465  1467     5 
 1462  1465  1468     5 
 1466  1465  1467     5 
 1466  1465  1468     5 
 1467  1465  1468     5 
 1465  1468  1469     5 
 1465  1468  1470     5 
 1465  1468  1471     5 
 1469  1468  1470     5 
 1469  1468  1471     5 
 1470  1468  1471     5 
 1468  1471  1472     5 
 1468  1471  1473     5 
 1468  1471  1474     5 
 1472  1471  1473     5 
 1472  1471  1474     5 
 1473  1471  1474     5 
 1476  1475  1479     5 
 1476  1475  1483     5 
 1476  1475  1487     5 
 1479  1475  1483     5 
 1479  1475  1487     5 
 1483  1475  1487     5 
 1475  1476  1477     5 
 1475  1476  1478     5 
 1475  1476  1491     5 
 1477  1476  1478     5 
 1477  1476  1491     5 
 1478  1476  1491     5 
 1475  1479  1480     5 
 1475  1479  1481     5 
 1475  1479  1482     5 
 1480  1479  1481     5 
 1480  1479  1482     5 
 1481  1479  1482     5 
 1475  1483  1484     5 
 1475  1483  1485     5 
 1475  1483  1486     5 
 1484  1483  1485     5 
 1484  1483  1486     5 
 1485  1483  1486     5 
 1475  1487  1488     5 
 1475  1487  1489     5 
 1475  1487  1490     5 
 1488  1487  1489     5 
 1488  1487  1490     5 
 1489  1487  1490     5 
 1476  1491  1492     5 
 1476  1491  1493     5 
 1476  1491  1497     5 
 1492  1491  1493     5 
 1492  1491  1497     5 
 1493  1491  1497     5 
 1495  1494  1496     5 
 1495  1494  1497     5 
 1495  1494  1498     5 
 1496  1494  1497     5 
 1496  1494  1498     5 
 1497  1494  1498     5 
 1491  1497  1494     5 
 1494  1498  1499     5 
 1498  1499  1500     5 
 1498  1499  1501     5 
 1498  1499  1502     5 
 1500  1499  1501     5 
 1500  1499  1502     5 
 1501  1499  1502     5 
 1499  1502  1503     5 
 1499  1502  1504     5 
 1499  1502  1510     5 
 1503  1502  1504     5 
 1503  1502  1510     5 
 1504  1502  1510     5 
 1502  1504  1505     5 
 1504  1505  1506     5 
 1504  1505  1507     5 
 1506  1505  1507     5 
 1505  1507  1508     5 
 1505  1507  1509     5 
 1505  1507  1519     5 
 1508  1507  1509     5 
 1508  1507  1519     5 
 1509  1507  1519     5 
 1502  1510  1511     5 
 1502  1510  1512     5 
 1502  1510  1513     5 
 1511  1510  1512     5 
 1511  1510  1513     5 
 1512  1510  1513     5 
 1510  1513  1514     5 
 1513  1514  1515     5 
 1513  1514  1516     5 
 1515  1514  1516     5 
 1514  1516  1517     5 
 1514  1516  1518     5 
 1514  1516  1566     5 
 1517  1516  1518     5 
 1517  1516  1566     5 
 1518  1516  1566     5 
 1507  1519  1520     5 
 1507  1519  1521     5 
 1507  1519  1522     5 
 1520  1519  1521     5 
 1520  1519  1522     5 
 1521  1519  1522     5 
 1519  1522  1523     5 
 1519  1522  1524     5 
 1519  1522  1525     5 
 1523  1522  1524     5 
 1523  1522  1525     5 
 1524  1522  1525     5 
 1522  1525  1526     5 
 1522  1525  1527     5 
 1522  1525  1528     5 
 1526  1525  1527     5 
 1526  1525  1528     5 
 1527  1525  1528     5 
 1525  1528  1529     5 
 1525  1528  1530     5 
 1525  1528  1531     5 
 1529  1528  1530     5 
 1529  1528  1531     5 
 1530  1528  1531     5 
 1528  1531  1532     5 
 1528  1531  1533     5 
 1528  1531  1534     5 
 1532  1531  1533     5 
 1532  1531  1534     5 
 1533  1531  1534     5 
 1531  1534  1535     5 
 1531  1534  1536     5 
 1531  1534  1537     5 
 1535  1534  1536     5 
 1535  1534  1537     5 
 1536  1534  1537     5 
 1534  1537  1538     5 
 1534  1537  1539     5 
 1538  1537  1539     5 
 1537  1539  1540     5 
 1537  1539  1541     5 
 1540  1539  1541     5 
 1539  1541  1542     5 
 1539  1541  1543     5 
 1539  1541  1544     5 
 1542  1541  1543     5 
 1542  1541  1544     5 
 1543  1541  1544     5 
 1541  1544  1545     5 
 1541  1544  1546     5 
 1541  1544  1547     5 
 1545  1544  1546     5 
 1545  1544  1547     5 
 1546  1544  1547     5 
 1544  1547  1548     5 
 1544  1547  1549     5 
 1544  1547  1550     5 
 1548  1547  1549     5 
 1548  1547  1550     5 
 1549  1547  1550     5 
 1547  1550  1551     5 
 1547  1550  1552     5 
 1547  1550  1553     5 
 1551  1550  1552     5 
 1551  1550  1553     5 
 1552  1550  1553     5 
 1550  1553  1554     5 
 1550  1553  1555     5 
 1550  1553  1556     5 
 1554  1553  1555     5 
 1554  1553  1556     5 
 1555  1553  1556     5 
 1553  1556  1557     5 
 1553  1556  1558     5 
 1553  1556  1559     5 
 1557  1556  1558     5 
 1557  1556  1559     5 
 1558  1556  1559     5 
 1556  1559  1560     5 
 1556  1559  1561     5 
 1556  1559  1562     5 
 1560  1559  1561     5 
 1560  1559  1562     5 
 1561  1559  1562     5 
 1559  1562  1563     5 
 1559  1562  1564     5 
 1559  1562  1565     5 
 1563  1562  1564     5 
 1563  1562  1565     5 
 1564  1562  1565     5 
 1516  1566  1567     5 
 1516  1566  1568     5 
 1516  1566  1569     5 
 1567  1566  1568     5 
 1567  1566  1569     5 
 1568  1566  1569     5 
 1566  1569  1570     5 
 1566  1569  1571     5 
 1566  1569  1572     5 
 1570  1569  1571     5 
 1570  1569  1572     5 
 1571  1569  1572     5 
 1569  1572  1573     5 
 1569  1572  1574     5 
 1569  1572  1575     5 
 1573  1572  1574     5 
 1573  1572  1575     5 
 1574  1572  1575     5 
 1572  1575  1576     5 
 1572  1575  1577     5 
 1572  1575  1578     5 
 1576  1575  1577     5 
 1576  1575  1578     5 
 1577  1575  1578     5 
 1575  1578  1579     5 
 1575  1578  1580     5 
 1575  1578  1581     5 
 1579  1578  1580     5 
 1579  1578  1581     5 
 1580  1578  1581     5 
 1578  1581  1582     5 
 1578  1581  1583     5 
 1578  1581  1584     5 
 1582  1581  1583     5 
 1582  1581  1584     5 
 1583  1581  1584     5 
 1581  1584  1585     5 
 1581  1584  1586     5 
 1581  1584  1587     5 
 1585  1584  1586     5 
 1585  1584  1587     5 
 1586  1584  1587     5 
 1584  1587  1588     5 
 1584  1587  1589     5 
 1584  1587  1590     5 
 1588  1587  1589     5 
 1588  1587  1590     5 
 1589  1587  1590     5 
 1587  1590  1591     5 
 1587  1590  1592     5 
 1587  1590  1593     5 
 1591  1590  1592     5 
 1591  1590  1593     5 
 1592  1590  1593     5 
 1590  1593  1594     5 
 1590  1593  1595     5 
 1590  1593  1596     5 
 1594  1593  1595     5 
 1594  1593  1596     5 
 1595  1593  1596     5 
 1593  1596  1597     5 
 1593  1596  1598     5 
 1593  1596  1599     5 
 1597  1596  1598     5 
 1597  1596  1599     5 
 1598  1596  1599     5 
 1596  1599  1600     5 
 1596  1599  1601     5 
 1596  1599  1602     5 
 1600  1599  1601     5 
 1600  1599  1602     5 
 1601  1599  1602     5 
 1599  1602  1603     5 
 1599  1602  1604     5 
 1599  1602  1605     5 
 1603  1602  1604     5 
 1603  1602  1605     5 
 1604  1602  1605     5 
 1602  1605  1606     5 
 1602  1605  1607     5 
 1602  1605  1608     5 
 1606  1605  1607     5 
 1606  1605  1608     5 
 1607  1605  1608     5 
 1610  1609  1613     5 
 1610  1609  1617     5 
 1610  1609  1621     5 
 1613  1609  1617     5 
 1613  1609  1621     5 
 1617  1609  1621     5 
 1609  1610  1611     5 
 1609  1610  1612     5 
 1609  1610  1625     5 
 1611  1610  1612     5 
 1611  1610  1625     5 
 1612  1610  1625     5 
 1609  1613  1614     5 
 1609  1613  1615     5 
 1609  1613  1616     5 
 1614  1613  1615     5 
 1614  1613  1616     5 
 1615  1613  1616     5 
 1609  1617  1618     5 
 1609  1617  1619     5 
 1609  1617  1620     5 
 1618  1617  1619     5 
 1618  1617  1620     5 
 1619  1617  1620     5 
 1609  1621  1622     5 
 1609  1621  1623     5 
 1609  1621  1624     5 
 1622  1621  1623     5 
 1622  1621  1624     5 
 1623  1621  1624     5 
 1610  1625  1626     5 
 1610  1625  1627     5 
 1610  1625  1631     5 
 1626  1625  1627     5 
 1626  1625  1631     5 
 1627  1625  1631     5 
 1629  1628  1630     5 
 1629  1628  1631     5 
 1629  1628  1632     5 
 1630  1628  1631     5 
 1630  1628  1632     5 
 1631  1628  1632     5 
 1625  1631  1628     5 
 1628  1632  1633     5 
 1632  1633  1634     5 
 1632  1633  1635     5 
 1632  1633  1636     5 
 1634  1633  1635     5 
 1634  1633  1636     5 
 1635  1633  1636     5 
 1633  1636  1637     5 
 1633  1636  1638     5 
 1633  1636  1644     5 
 1637  1636  1638     5 
 1637  1636  1644     5 
 1638  1636  1644     5 
 1636  1638  1639     5 
 1638  1639  1640     5 
 1638  1639  1641     5 
 1640  1639  1641     5 
 1639  1641  1642     5 
 1639  1641  1643     5 
 1639  1641  1653     5 
 1642  1641  1643     5 
 1642  1641  1653     5 
 1643  1641  1653     5 
 1636  1644  1645     5 
 1636  1644  1646     5 
 1636  1644  1647     5 
 1645  1644  1646     5 
 1645  1644  1647     5 
 1646  1644  1647     5 
 1644  1647  1648     5 
 1647  1648  1649     5 
 1647  1648  1650     5 
 1649  1648  1650     5 
 1648  1650  1651     5 
 1648  1650  1652     5 
 1648  1650  1700     5 
 1651  1650  1652     5 
 1651  1650  1700     5 
 1652  1650  1700     5 
 1641  1653  1654     5 
 1641  1653  1655     5 
 1641  1653  1656     5 
 1654  1653  1655     5 
 1654  1653  1656     5 
 1655  1653  1656     5 
 1653  1656  1657     5 
 1653  1656  1658     5 
 1653  1656  1659     5 
 1657  1656  1658     5 
 1657  1656  1659     5 
 1658  1656  1659     5 
 1656  1659  1660     5 
 1656  1659  1661     5 
 1656  1659  1662     5 
 1660  1659  1661     5 
 1660  1659  1662     5 
 1661  1659  1662     5 
 1659  1662  1663     5 
 1659  1662  1664     5 
 1659  1662  1665     5 
 1663  1662  1664     5 
 1663  1662  1665     5 
 1664  1662  1665     5 
 1662  1665  1666     5 
 1662  1665  1667     5 
 1662  1665  1668     5 
 1666  1665  1667     5 
 1666  1665  1668     5 
 1667  1665  1668     5 
 1665  1668  1669     5 
 1665  1668  1670     5 
 1665  1668  1671     5 
 1669  1668  1670     5 
 1669  1668  1671     5 
 1670  1668  1671     5 
 1668  1671  1672     5 
 1668  1671  1673     5 
 1672  1671  1673     5 
 1671  1673  1674     5 
 1671  1673  1675     5 
 1674  1673  1675     5 
 1673  1675  1676     5 
 1673  1675  1677     5 
 1673  1675  1678     5 
 1676  1675  1677     5 
 1676  1675  1678     5 
 1677  1675  1678     5 
 1675  1678  1679     5 
 1675  1678  1680     5 
 1675  1678  1681     5 
 1679  1678  1680     5 
 1679  1678  1681     5 
 1680  1678  1681     5 
 1678  1681  1682     5 
 1678  1681  1683     5 
 1678  1681  1684     5 
 1682  1681  1683     5 
 1682  1681  1684     5 
 1683  1681  1684     5 
 1681  1684  1685     5 
 1681  1684  1686     5 
 1681  1684  1687     5 
 1685  1684  1686     5 
 1685  1684  1687     5 
 1686  1684  1687     5 
 1684  1687  1688     5 
 1684  1687  1689     5 
 1684  1687  1690     5 
 1688  1687  1689     5 
 1688  1687  1690     5 
 1689  1687  1690     5 
 1687  1690  1691     5 
 1687  1690  1692     5 
 1687  1690  1693     5 
 1691  1690  1692     5 
 1691  1690  1693     5 
 1692  1690  1693     5 
 1690  1693  1694     5 
 1690  1693  1695     5 
 1690  1693  1696     5 
 1694  1693  1695     5 
 1694  1693  1696     5 
 1695  1693  1696     5 
 1693  1696  1697     5 
 1693  1696  1698     5 
 1693  1696  1699     5 
 1697  1696  1698     5 
 1697  1696  1699     5 
 1698  1696  1699     5 
 1650  1700  1701     5 
 1650  1700  1702     5 
 1650  1700  1703     5 
 1701  1700  1702     5 
 1701  1700  1703     5 
 1702  1700  1703     5 
 1700  1703  1704     5 
 1700  1703  1705     5 
 1700  1703  1706     5 
 1704  1703  1705     5 
 1704  1703  1706     5 
 1705  1703  1706     5 
 1703  1706  1707     5 
 1703  1706  1708     5 
 1703  1706  1709     5 
 1707  1706  1708     5 
 1707  1706  1709     5 
 1708  1706  1709     5 
 1706  1709  1710     5 
 1706  1709  1711     5 
 1706  1709  1712     5 
 1710  1709  1711     5 
 1710  1709  1712     5 
 1711  1709  1712     5 
 1709  1712  1713     5 
 1709  1712  1714     5 
 1709  1712  1715     5 
 1713  1712  1714     5 
 1713  1712  1715     5 
 1714  1712  1715     5 
 1712  1715  1716     5 
 1712  1715  1717     5 
 1712  1715  1718     5 
 1716  1715  1717     5 
 1716  1715  1718     5 
 1717  1715  1718     5 
 1715  1718  1719     5 
 1715  1718  1720     5 
 1715  1718  1721     5 
 1719  1718  1720     5 
 1719  1718  1721     5 
 1720  1718  1721     5 
 1718  1721  1722     5 
 1718  1721  1723     5 
 1718  1721  1724     5 
 1722  1721  1723     5 
 1722  1721  1724     5 
 1723  1721  1724     5 
 1721  1724  1725     5 
 1721  1724  1726     5 
 1721  1724  1727     5 
 1725  1724  1726     5 
 1725  1724  1727     5 
 1726  1724  1727     5 
 1724  1727  1728     5 
 1724  1727  1729     5 
 1724  1727  1730     5 
 1728  1727  1729     5 
 1728  1727  1730     5 
 1729  1727  1730     5 
 1727  1730  1731     5 
 1727  1730  1732     5 
 1727  1730  1733     5 
 1731  1730  1732     5 
 1731  1730  1733     5 
 1732  1730  1733     5 
 1730  1733  1734     5 
 1730  1733  1735     5 
 1730  1733  1736     5 
 1734  1733  1735     5 
 1734  1733  1736     5 
 1735  1733  1736     5 
 1733  1736  1737     5 
 1733  1736  1738     5 
 1733  1736  1739     5 
 1737  1736  1738     5 
 1737  1736  1739     5 
 1738  1736  1739     5 
 1736  1739  1740     5 
 1736  1739  1741     5 
 1736  1739  1742     5 
 1740  1739  1741     5 
 1740  1739  1742     5 
 1741  1739  1742     5 
 1744  1743  1747     5 
 1744  1743  1751     5 
 1744  1743  1755     5 
 1747  1743  1751     5 
 1747  1743  1755     5 
 1751  1743  1755     5 
 1743  1744  1745     5 
 1743  1744  1746     5 
 1743  1744  1759     5 
 1745  1744  1746     5 
 1745  1744  1759     5 
 1746  1744  1759     5 
 1743  1747  1748     5 
 1743  1747  1749     5 
 1743  1747  1750     5 
 1748  1747  1749     5 
 1748  1747  1750     5 
 1749  1747  1750     5 
 1743  1751  1752     5 
 1743  1751  1753     5 
 1743  1751  1754     5 
 1752  1751  1753     5 
 1752  1751  1754     5 
 1753  1751  1754     5 
 1743  1755  1756     5 
 1743  1755  1757     5 
 1743  1755  1758     5 
 1756  1755  1757     5 
 1756  1755  1758     5 
 1757  1755  1758     5 
 1744  1759  1760     5 
 1744  1759  1761     5 
 1744  1759  1765     5 
 1760  1759  1761     5 
 1760  1759  1765     5 
 1761  1759  1765     5 
 1763  1762  1764     5 
 1763  1762  1765     5 
 1763  1762  1766     5 
 1764  1762  1765     5 
 1764  1762  1766     5 
 1765  1762  1766     5 
 1759  1765  1762     5 
 1762  1766  1767     5 
 1766  1767  1768     5 
 1766  1767  1769     5 
 1766  1767  1770     5 
 1768  1767  1769     5 
 1768  1767  1770     5 
 1769  1767  1770     5 
 1767  1770  1771     5 
 1767  1770  1772     5 
 1767  1770  1778     5 
 1771  1770  1772     5 
 1771  1770  1778     5 
 1772  1770  1778     5 
 1770  1772  1773     5 
 1772  1773  1774     5 
 1772  1773  1775     5 
 1774  1773  1775     5 
 1773  1775  1776     5 
 1773  1775  1777     5 
 1773  1775  1787     5 
 1776  1775  1777     5 
 1776  1775  1787     5 
 1777  1775  1787     5 
 1770  1778  1779     5 
 1770  1778  1780     5 
 1770  1778  1781     5 
 1779  1778  1780     5 
 1779  1778  1781     5 
 1780  1778  1781     5 
 1778  1781  1782     5 
 1781  1782  1783     5 
 1781  1782  1784     5 
 1783  1782  1784     5 
 1782  1784  1785     5 
 1782  1784  1786     5 
 1782  1784  1834     5 
 1785  1784  1786     5 
 1785  1784  1834     5 
 1786  1784  1834     5 
 1775  1787  1788     5 
 1775  1787  1789     5 
 1775  1787  1790     5 
 1788  1787  1789     5 
 1788  1787  1790     5 
 1789  1787  1790     5 
 1787  1790  1791     5 
 1787  1790  1792     5 
 1787  1790  1793     5 
 1791  1790  1792     5 
 1791  1790  1793     5 
 1792  1790  1793     5 
 1790  1793  1794     5 
 1790  1793  1795     5 
 1790  1793  1796     5 
 1794  1793  1795     5 
 1794  1793  1796     5 
 1795  1793  1796     5 
 1793  1796  1797     5 
 1793  1796  1798     5 
 1793  1796  1799     5 
 1797  1796  1798     5 
 1797  1796  1799     5 
 1798  1796  1799     5 
 1796  1799  1800     5 
 1796  1799  1801     5 
 1796  1799  1802     5 
 1800  1799  1801     5 
 1800  1799  1802     5 
 1801  1799  1802     5 
 1799  1802  1803     5 
 1799  1802  1804     5 
 1799  1802  1805     5 
 1803  1802  1804     5 
 1803  1802  1805     5 
 1804  1802  1805     5 
 1802  1805  1806     5 
 1802  1805  1807     5 
 1806  1805  1807     5 
 1805  1807  1808     5 
 1805  1807  1809     5 
 1808  1807  1809     5 
 1807  1809  1810     5 
 1807  1809  1811     5 
 1807  1809  1812     5 
 1810  1809  1811     5 
 1810  1809  1812     5 
 1811  1809  1812     5 
 1809  1812  1813     5 
 1809  1812  1814     5 
 1809  1812  1815     5 
 1813  1812  1814     5 
 1813  1812  1815     5 
 1814  1812  1815     5 
 1812  1815  1816     5 
 1812  1815  1817     5 
 1812  1815  1818     5 
 1816  1815  1817     5 
 1816  1815  1818     5 
 1817  1815  1818     5 
 1815  1818  1819     5 
 1815  1818  1820     5 
 1815  1818  1821     5 
 1819  1818  1820     5 
 1819  1818  1821     5 
 1820  1818  1821     5 
 1818  1821  1822     5 
 1818  1821  1823     5 
 1818  1821  1824     5 
 1822  1821  1823     5 
 1822  1821  1824     5 
 1823  1821  1824     5 
 1821  1824  1825     5 
 1821  1824  1826     5 
 1821  1824  1827     5 
 1825  1824  1826     5 
 1825  1824  1827     5 
 1826  1824  1827     5 
 1824  1827  1828     5 
 1824  1827  1829     5 
 1824  1827  1830     5 
 1828  1827  1829     5 
 1828  1827  1830     5 
 1829  1827  1830     5 
 1827  1830  1831     5 
 1827  1830  1832     5 
 1827  1830  1833     5 
 1831  1830  1832     5 
 1831  1830  1833     5 
 1832  1830  1833     5 
 1784  1834  1835     5 
 1784  1834  1836     5 
 1784  1834  1837     5 
 1835  1834  1836     5 
 1835  1834  1837     5 
 1836  1834  1837     5 
 1834  1837  1838     5 
 1834  1837  1839     5 
 1834  1837  1840     5 
 1838  1837  1839     5 
 1838  1837  1840     5 
 1839  1837  1840     5 
 1837  1840  1841     5 
 1837  1840  1842     5 
 1837  1840  1843     5 
 1841  1840  1842     5 
 1841  1840  1843     5 
 1842  1840  1843     5 
 1840  1843  1844     5 
 1840  1843  1845     5 
 1840  1843  1846     5 
 1844  1843  1845     5 
 1844  1843  1846     5 
 1845  1843  1846     5 
 1843  1846  1847     5 
 1843  1846  1848     5 
 1843  1846  1849     5 
 1847  1846  1848     5 
 1847  1846  1849     5 
 1848  1846  1849     5 
 1846  1849  1850     5 
 1846  1849  1851     5 
 1846  1849  1852     5 
 1850  1849  1851     5 
 1850  1849  1852     5 
 1851  1849  1852     5 
 1849  1852  1853     5 
 1849  1852  1854     5 
 1849  1852  1855     5 
 1853  1852  1854     5 
 1853  1852  1855     5 
 1854  1852  1855     5 
 1852  1855  1856     5 
 1852  1855  1857     5 
 1852  1855  1858     5 
 1856  1855  1857     5 
 1856  1855  1858     5 
 1857  1855  1858     5 
 1855  1858  1859     5 
 1855  1858  1860     5 
 1855  1858  1861     5 
 1859  1858  1860     5 
 1859  1858  1861     5 
 1860  1858  1861     5 
 1858  1861  1862     5 
 1858  1861  1863     5 
 1858  1861  1864     5 
 1862  1861  1863     5 
 1862  1861  1864     5 
 1863  1861  1864     5 
 1861  1864  1865     5 
 1861  1864  1866     5 
 1861  1864  1867     5 
 1865  1864  1866     5 
 1865  1864  1867     5 
 1866  1864  1867     5 
 1864  1867  1868     5 
 1864  1867  1869     5 
 1864  1867  1870     5 
 1868  1867  1869     5 
 1868  1867  1870     5 
 1869  1867  1870     5 
 1867  1870  1871     5 
 1867  1870  1872     5 
 1867  1870  1873     5 
 1871  1870  1872     5 
 1871  1870  1873     5 
 1872  1870  1873     5 
 1870  1873  1874     5 
 1870  1873  1875     5 
 1870  1873  1876     5 
 1874  1873  1875     5 
 1874  1873  1876     5 
 1875  1873  1876     5 
 1878  1877  1881     5 
 1878  1877  1885     5 
 1878  1877  1889     5 
 1881  1877  1885     5 
 1881  1877  1889     5 
 1885  1877  1889     5 
 1877  1878  1879     5 
 1877  1878  1880     5 
 1877  1878  1893     5 
 1879  1878  1880     5 
 1879  1878  1893     5 
 1880  1878  1893     5 
 1877  1881  1882     5 
 1877  1881  1883     5 
 1877  1881  1884     5 
 1882  1881  1883     5 
 1882  1881  1884     5 
 1883  1881  1884     5 
 1877  1885  1886     5 
 1877  1885  1887     5 
 1877  1885  1888     5 
 1886  1885  1887     5 
 1886  1885  1888     5 
 1887  1885  1888     5 
 1877  1889  1890     5 
 1877  1889  1891     5 
 1877  1889  1892     5 
 1890  1889  1891     5 
 1890  1889  1892     5 
 1891  1889  1892     5 
 1878  1893  1894     5 
 1878  1893  1895     5 
 1878  1893  1899     5 
 1894  1893  1895     5 
 1894  1893  1899     5 
 1895  1893  1899     5 
 1897  1896  1898     5 
 1897  1896  1899     5 
 1897  1896  1900     5 
 1898  1896  1899     5 
 1898  1896  1900     5 
 1899  1896  1900     5 
 1893  1899  1896     5 
 1896  1900  1901     5 
 1900  1901  1902     5 
 1900  1901  1903     5 
 1900  1901  1904     5 
 1902  1901  1903     5 
 1902  1901  1904     5 
 1903  1901  1904     5 
 1901  1904  1905     5 
 1901  1904  1906     5 
 1901  1904  1912     5 
 1905  1904  1906     5 
 1905  1904  1912     5 
 1906  1904  1912     5 
 1904  1906  1907     5 
 1906  1907  1908     5 
 1906  1907  1909     5 
 1908  1907  1909     5 
 1907  1909  1910     5 
 1907  1909  1911     5 
 1907  1909  1921     5 
 1910  1909  1911     5 
 1910  1909  1921     5 
 1911  1909  1921     5 
 1904  1912  1913     5 
 1904  1912  1914     5 
 1904  1912  1915     5 
 1913  1912  1914     5 
 1913  1912  1915     5 
 1914  1912  1915     5 
 1912  1915  1916     5 
 1915  1916  1917     5 
 1915  1916  1918     5 
 1917  1916  1918     5 
 1916  1918  1919     5 
 1916  1918  1920     5 
 1916  1918  1968     5 
 1919  1918  1920     5 
 1919  1918  1968     5 
 1920  1918  1968     5 
 1909  1921  1922     5 
 1909  1921  1923     5 
 1909  1921  1924     5 
 1922  1921  1923     5 
 1922  1921  1924     5 
 1923  1921  1924     5 
 1921  1924  1925     5 
 1921  1924  1926     5 
 1921  1924  1927     5 
 1925  1924  1926     5 
 1925  1924  1927     5 
 1926  1924  1927     5 
 1924  1927  1928     5 
 1924  1927  1929     5 
 1924  1927  1930     5 
 1928  1927  1929     5 
 1928  1927  1930     5 
 1929  1927  1930     5 
 1927  1930  1931     5 
 1927  1930  1932     5 
 1927  1930  1933     5 
 1931  1930  1932     5 
 1931  1930  1933     5 
 1932  1930  1933     5 
 1930  1933  1934     5 
 1930  1933  1935     5 
 1930  1933  1936     5 
 1934  1933  1935     5 
 1934  1933  1936     5 
 1935  1933  1936     5 
 1933  1936  1937     5 
 1933  1936  1938     5 
 1933  1936  1939     5 
 1937  1936  1938     5 
 1937  1936  1939     5 
 1938  1936  1939     5 
 1936  1939  1940     5 
 1936  1939  1941     5 
 1940  1939  1941     5 
 1939  1941  1942     5 
 1939  1941  1943     5 
 1942  1941  1943     5 
 1941  1943  1944     5 
 1941  1943  1945     5 
 1941  1943  1946     5 
 1944  1943  1945     5 
 1944  1943  1946     5 
 1945  1943  1946     5 
 1943  1946  1947     5 
 1943  1946  1948     5 
 1943  1946  1949     5 
 1947  1946  1948     5 
 1947  1946  1949     5 
 1948  1946  1949     5 
 1946  1949  1950     5 
 1946  1949  1951     5 
 1946  1949  1952     5 
 1950  1949  1951     5 
 1950  1949  1952     5 
 1951  1949  1952     5 
 1949  1952  1953     5 
 1949  1952  1954     5 
 1949  1952  1955     5 
 1953  1952  1954     5 
 1953  1952  1955     5 
 1954  1952  1955     5 
 1952  1955  1956     5 
 1952  1955  1957     5 
 1952  1955  1958     5 
 1956  1955  1957     5 
 1956  1955  1958     5 
 1957  1955  1958     5 
 1955  1958  1959     5 
 1955  1958  1960     5 
 1955  1958  1961     5 
 1959  1958  1960     5 
 1959  1958  1961     5 
 1960  1958  1961     5 
 1958  1961  1962     5 
 1958  1961  1963     5 
 1958  1961  1964     5 
 1962  1961  1963     5 
 1962  1961  1964     5 
 1963  1961  1964     5 
 1961  1964  1965     5 
 1961  1964  1966     5 
 1961  1964  1967     5 
 1965  1964  1966     5 
 1965  1964  1967     5 
 1966  1964  1967     5 
 1918  1968  1969     5 
 1918  1968  1970     5 
 1918  1968  1971     5 
 1969  1968  1970     5 
 1969  1968  1971     5 
 1970  1968  1971     5 
 1968  1971  1972     5 
 1968  1971  1973     5 
 1968  1971  1974     5 
 1972  1971  1973     5 
 1972  1971  1974     5 
 1973  1971  1974     5 
 1971  1974  1975     5 
 1971  1974  1976     5 
 1971  1974  1977     5 
 1975  1974  1976     5 
 1975  1974  1977     5 
 1976  1974  1977     5 
 1974  1977  1978     5 
 1974  1977  1979     5 
 1974  1977  1980     5 
 1978  1977  1979     5 
 1978  1977  1980     5 
 1979  1977  1980     5 
 1977  1980  1981     5 
 1977  1980  1982     5 
 1977  1980  1983     5 
 1981  1980  1982     5 
 1981  1980  1983     5 
 1982  1980  1983     5 
 1980  1983  1984     5 
 1980  1983  1985     5 
 1980  1983  1986     5 
 1984  1983  1985     5 
 1984  1983  1986     5 
 1985  1983  1986     5 
 1983  1986  1987     5 
 1983  1986  1988     5 
 1983  1986  1989     5 
 1987  1986  1988     5 
 1987  1986  1989     5 
 1988  1986  1989     5 
 1986  1989  1990     5 
 1986  1989  1991     5 
 1986  1989  1992     5 
 1990  1989  1991     5 
 1990  1989  1992     5 
 1991  1989  1992     5 
 1989  1992  1993     5 
 1989  1992  1994     5 
 1989  1992  1995     5 
 1993  1992  1994     5 
 1993  1992  1995     5 
 1994  1992  1995     5 
 1992  1995  1996     5 
 1992  1995  1997     5 
 1992  1995  1998     5 
 1996  1995  1997     5 
 1996  1995  1998     5 
 1997  1995  1998     5 
 1995  1998  1999     5 
 1995  1998  2000     5 
 1995  1998  2001     5 
 1999  1998  2000     5 
 1999  1998  2001     5 
 2000  1998  2001     5 
 1998  2001  2002     5 
 1998  2001  2003     5 
 1998  2001  2004     5 
 2002  2001  2003     5 
 2002  2001  2004     5 
 2003  2001  2004     5 
 2001  2004  2005     5 
 2001  2004  2006     5 
 2001  2004  2007     5 
 2005  2004  2006     5 
 2005  2004  2007     5 
 2006  2004  2007     5 
 2004  2007  2008     5 
 2004  2007  2009     5 
 2004  2007  2010     5 
 2008  2007  2009     5 
 2008  2007  2010     5 
 2009  2007  2010     5 
 2012  2011  2015     5 
 2012  2011  2019     5 
 2012  2011  2023     5 
 2015  2011  2019     5 
 2015  2011  2023     5 
 2019  2011  2023     5 
 2011  2012  2013     5 
 2011  2012  2014     5 
 2011  2012  2027     5 
 2013  2012  2014     5 
 2013  2012  2027     5 
 2014  2012  2027     5 
 2011  2015  2016     5 
 2011  2015  2017     5 
 2011  2015  2018     5 
 2016  2015  2017     5 
 2016  2015  2018     5 
 2017  2015  2018     5 
 2011  2019  2020     5 
 2011  2019  2021     5 
 2011  2019  2022     5 
 2020  2019  2021     5 
 2020  2019  2022     5 
 2021  2019  2022     5 
 2011  2023  2024     5 
 2011  2023  2025     5 
 2011  2023  2026     5 
 2024  2023  2025     5 
 2024  2023  2026     5 
 2025  2023  2026     5 
 2012  2027  2028     5 
 2012  2027  2029     5 
 2012  2027  2033     5 
 2028  2027  2029     5 
 2028  2027  2033     5 
 2029  2027  2033     5 
 2031  2030  2032     5 
 2031  2030  2033     5 
 2031  2030  2034     5 
 2032  2030  2033     5 
 2032  2030  2034     5 
 2033  2030  2034     5 
 2027  2033  2030     5 
 2030  2034  2035     5 
 2034  2035  2036     5 
 2034  2035  2037     5 
 2034  2035  2038     5 
 2036  2035  2037     5 
 2036  2035  2038     5 
 2037  2035  2038     5 
 2035  2038  2039     5 
 2035  2038  2040     5 
 2035  2038  2046     5 
 2039  2038  2040     5 
 2039  2038  2046     5 
 2040  2038  2046     5 
 2038  2040  2041     5 
 2040  2041  2042     5 
 2040  2041  2043     5 
 2042  2041  2043     5 
 2041  2043  2044     5 
 2041  2043  2045     5 
 2041  2043  2055     5 
 2044  2043  2045     5 
 2044  2043  2055     5 
 2045  2043  2055     5 
 2038  2046  2047     5 
 2038  2046  2048     5 
 2038  2046  2049     5 
 2047  2046  2048     5 
 2047  2046  2049     5 
 2048  2046  2049     5 
 2046  2049  2050     5 
 2049  2050  2051     5 
 2049  2050  2052     5 
 2051  2050  2052     5 
 2050  2052  2053     5 
 2050  2052  2054     5 
 2050  2052  2102     5 
 2053  2052  2054     5 
 2053  2052  2102     5 
 2054  2052  2102     5 
 2043  2055  2056     5 
 2043  2055  2057     5 
 2043  2055  2058     5 
 2056  2055  2057     5 
 2056  2055  2058     5 
 2057  2055  2058     5 
 2055  2058  2059     5 
 2055  2058  2060     5 
 2055  2058  2061     5 
 2059  2058  2060     5 
 2059  2058  2061     5 
 2060  2058  2061     5 
 2058  2061  2062     5 
 2058  2061  2063     5 
 2058  2061  2064     5 
 2062  2061  2063     5 
 2062  2061  2064     5 
 2063  2061  2064     5 
 2061  2064  2065     5 
 2061  2064  2066     5 
 2061  2064  2067     5 
 2065  2064  2066     5 
 2065  2064  2067     5 
 2066  2064  2067     5 
 2064  2067  2068     5 
 2064  2067  2069     5 
 2064  2067  2070     5 
 2068  2067  2069     5 
 2068  2067  2070     5 
 2069  2067  2070     5 
 2067  2070  2071     5 
 2067  2070  2072     5 
 2067  2070  2073     5 
 2071  2070  2072     5 
 2071  2070  2073     5 
 2072  2070  2073     5 
 2070  2073  2074     5 
 2070  2073  2075     5 
 2074  2073  2075     5 
 2073  2075  2076     5 
 2073  2075  2077     5 
 2076  2075  2077     5 
 2075  2077  2078     5 
 2075  2077  2079     5 
 2075  2077  2080     5 
 2078  2077  2079     5 
 2078  2077  2080     5 
 2079  2077  2080     5 
 2077  2080  2081     5 
 2077  2080  2082     5 
 2077  2080  2083     5 
 2081  2080  2082     5 
 2081  2080  2083     5 
 2082  2080  2083     5 
 2080  2083  2084     5 
 2080  2083  2085     5 
 2080  2083  2086     5 
 2084  2083  2085     5 
 2084  2083  2086     5 
 2085  2083  2086     5 
 2083  2086  2087     5 
 2083  2086  2088     5 
 2083  2086  2089     5 
 2087  2086  2088     5 
 2087  2086  2089     5 
 2088  2086  2089     5 
 2086  2089  2090     5 
 2086  2089  2091     5 
 2086  2089  2092     5 
 2090  2089  2091     5 
 2090  2089  2092     5 
 2091  2089  2092     5 
 2089  2092  2093     5 
 2089  2092  2094     5 
 2089  2092  2095     5 
 2093  2092  2094     5 
 2093  2092  2095     5 
 2094  2092  2095     5 
 2092  2095  2096     5 
 2092  2095  2097     5 
 2092  2095  2098     5 
 2096  2095  2097     5 
 2096  2095  2098     5 
 2097  2095  2098     5 
 2095  2098  2099     5 
 2095  2098  2100     5 
 2095  2098  2101     5 
 2099  2098  2100     5 
 2099  2098  2101     5 
 2100  2098  2101     5 
 2052  2102  2103     5 
 2052  2102  2104     5 
 2052  2102  2105     5 
 2103  2102  2104     5 
 2103  2102  2105     5 
 2104  2102  2105     5 
 2102  2105  2106     5 
 2102  2105  2107     5 
 2102  2105  2108     5 
 2106  2105  2107     5 
 2106  2105  2108     5 
 2107  2105  2108     5 
 2105  2108  2109     5 
 2105  2108  2110     5 
 2105  2108  2111     5 
 2109  2108  2110     5 
 2109  2108  2111     5 
 2110  2108  2111     5 
 2108  2111  2112     5 
 2108  2111  2113     5 
 2108  2111  2114     5 
 2112  2111  2113     5 
 2112  2111  2114     5 
 2113  2111  2114     5 
 2111  2114  2115     5 
 2111  2114  2116     5 
 2111  2114  2117     5 
 2115  2114  2116     5 
 2115  2114  2117     5 
 2116  2114  2117     5 
 2114  2117  2118     5 
 2114  2117  2119     5 
 2114  2117  2120     5 
 2118  2117  2119     5 
 2118  2117  2120     5 
 2119  2117  2120     5 
 2117  2120  2121     5 
 2117  2120  2122     5 
 2117  2120  2123     5 
 2121  2120  2122     5 
 2121  2120  2123     5 
 2122  2120  2123     5 
 2120  2123  2124     5 
 2120  2123  2125     5 
 2120  2123  2126     5 
 2124  2123  2125     5 
 2124  2123  2126     5 
 2125  2123  2126     5 
 2123  2126  2127     5 
 2123  2126  2128     5 
 2123  2126  2129     5 
 2127  2126  2128     5 
 2127  2126  2129     5 
 2128  2126  2129     5 
 2126  2129  2130     5 
 2126  2129  2131     5 
 2126  2129  2132     5 
 2130  2129  2131     5 
 2130  2129  2132     5 
 2131  2129  2132     5 
 2129  2132  2133     5 
 2129  2132  2134     5 
 2129  2132  2135     5 
 2133  2132  2134     5 
 2133  2132  2135     5 
 2134  2132  2135     5 
 2132  2135  2136     5 
 2132  2135  2137     5 
 2132  2135  2138     5 
 2136  2135  2137     5 
 2136  2135  2138     5 
 2137  2135  2138     5 
 2135  2138  2139     5 
 2135  2138  2140     5 
 2135  2138  2141     5 
 2139  2138  2140     5 
 2139  2138  2141     5 
 2140  2138  2141     5 
 2138  2141  2142     5 
 2138  2141  2143     5 
 2138  2141  2144     5 
 2142  2141  2143     5 
 2142  2141  2144     5 
 2143  2141  2144     5 
 2146  2145  2149     5 
 2146  2145  2153     5 
 2146  2145  2157     5 
 2149  2145  2153     5 
 2149  2145  2157     5 
 2153  2145  2157     5 
 2145  2146  2147     5 
 2145  2146  2148     5 
 2145  2146  2161     5 
 2147  2146  2148     5 
 2147  2146  2161     5 
 2148  2146  2161     5 
 2145  2149  2150     5 
 2145  2149  2151     5 
 2145  2149  2152     5 
 2150  2149  2151     5 
 2150  2149  2152     5 
 2151  2149  2152     5 
 2145  2153  2154     5 
 2145  2153  2155     5 
 2145  2153  2156     5 
 2154  2153  2155     5 
 2154  2153  2156     5 
 2155  2153  2156     5 
 2145  2157  2158     5 
 2145  2157  2159     5 
 2145  2157  2160     5 
 2158  2157  2159     5 
 2158  2157  2160     5 
 2159  2157  2160     5 
 2146  2161  2162     5 
 2146  2161  2163     5 
 2146  2161  2167     5 
 2162  2161  2163     5 
 2162  2161  2167     5 
 2163  2161  2167     5 
 2165  2164  2166     5 
 2165  2164  2167     5 
 2165  2164  2168     5 
 2166  2164  2167     5 
 2166  2164  2168     5 
 2167  2164  2168     5 
 2161  2167  2164     5 
 2164  2168  2169     5 
 2168  2169  2170     5 
 2168  2169  2171     5 
 2168  2169  2172     5 
 2170  2169  2171     5 
 2170  2169  2172     5 
 2171  2169  2172     5 
 2169  2172  2173     5 
 2169  2172  2174     5 
 2169  2172  2180     5 
 2173  2172  2174     5 
 2173  2172  2180     5 
 2174  2172  2180     5 
 2172  2174  2175     5 
 2174  2175  2176     5 
 2174  2175  2177     5 
 2176  2175  2177     5 
 2175  2177  2178     5 
 2175  2177  2179     5 
 2175  2177  2189     5 
 2178  2177  2179     5 
 2178  2177  2189     5 
 2179  2177  2189     5 
 2172  2180  2181     5 
 2172  2180  2182     5 
 2172  2180  2183     5 
 2181  2180  2182     5 
 2181  2180  2183     5 
 2182  2180  2183     5 
 2180  2183  2184     5 
 2183  2184  2185     5 
 2183  2184  2186     5 
 2185  2184  2186     5 
 2184  2186  2187     5 
 2184  2186  2188     5 
 2184  2186  2236     5 
 2187  2186  2188     5 
 2187  2186  2236     5 
 2188  2186  2236     5 
 2177  2189  2190     5 
 2177  2189  2191     5 
 2177  2189  2192     5 
 2190  2189  2191     5 
 2190  2189  2192     5 
 2191  2189  2192     5 
 2189  2192  2193     5 
 2189  2192  2194     5 
 2189  2192  2195     5 
 2193  2192  2194     5 
 2193  2192  2195     5 
 2194  2192  2195     5 
 2192  2195  2196     5 
 2192  2195  2197     5 
 2192  2195  2198     5 
 2196  2195  2197     5 
 2196  2195  2198     5 
 2197  2195  2198     5 
 2195  2198  2199     5 
 2195  2198  2200     5 
 2195  2198  2201     5 
 2199  2198  2200     5 
 2199  2198  2201     5 
 2200  2198  2201     5 
 2198  2201  2202     5 
 2198  2201  2203     5 
 2198  2201  2204     5 
 2202  2201  2203     5 
 2202  2201  2204     5 
 2203  2201  2204     5 
 2201  2204  2205     5 
 2201  2204  2206     5 
 2201  2204  2207     5 
 2205  2204  2206     5 
 2205  2204  2207     5 
 2206  2204  2207     5 
 2204  2207  2208     5 
 2204  2207  2209     5 
 2208  2207  2209     5 
 2207  2209  2210     5 
 2207  2209  2211     5 
 2210  2209  2211     5 
 2209  2211  2212     5 
 2209  2211  2213     5 
 2209  2211  2214     5 
 2212  2211  2213     5 
 2212  2211  2214     5 
 2213  2211  2214     5 
 2211  2214  2215     5 
 2211  2214  2216     5 
 2211  2214  2217     5 
 2215  2214  2216     5 
 2215  2214  2217     5 
 2216  2214  2217     5 
 2214  2217  2218     5 
 2214  2217  2219     5 
 2214  2217  2220     5 
 2218  2217  2219     5 
 2218  2217  2220     5 
 2219  2217  2220     5 
 2217  2220  2221     5 
 2217  2220  2222     5 
 2217  2220  2223     5 
 2221  2220  2222     5 
 2221  2220  2223     5 
 2222  2220  2223     5 
 2220  2223  2224     5 
 2220  2223  2225     5 
 2220  2223  2226     5 
 2224  2223  2225     5 
 2224  2223  2226     5 
 2225  2223  2226     5 
 2223  2226  2227     5 
 2223  2226  2228     5 
 2223  2226  2229     5 
 2227  2226  2228     5 
 2227  2226  2229     5 
 2228  2226  2229     5 
 2226  2229  2230     5 
 2226  2229  2231     5 
 2226  2229  2232     5 
 2230  2229  2231     5 
 2230  2229  2232     5 
 2231  2229  2232     5 
 2229  2232  2233     5 
 2229  2232  2234     5 
 2229  2232  2235     5 
 2233  2232  2234     5 
 2233  2232  2235     5 
 2234  2232  2235     5 
 2186  2236  2237     5 
 2186  2236  2238     5 
 2186  2236  2239     5 
 2237  2236  2238     5 
 2237  2236  2239     5 
 2238  2236  2239     5 
 2236  2239  2240     5 
 2236  2239  2241     5 
 2236  2239  2242     5 
 2240  2239  2241     5 
 2240  2239  2242     5 
 2241  2239  2242     5 
 2239  2242  2243     5 
 2239  2242  2244     5 
 2239  2242  2245     5 
 2243  2242  2244     5 
 2243  2242  2245     5 
 2244  2242  2245     5 
 2242  2245  2246     5 
 2242  2245  2247     5 
 2242  2245  2248     5 
 2246  2245  2247     5 
 2246  2245  2248     5 
 2247  2245  2248     5 
 2245  2248  2249     5 
 2245  2248  2250     5 
 2245  2248  2251     5 
 2249  2248  2250     5 
 2249  2248  2251     5 
 2250  2248  2251     5 
 2248  2251  2252     5 
 2248  2251  2253     5 
 2248  2251  2254     5 
 2252  2251  2253     5 
 2252  2251  2254     5 
 2253  2251  2254     5 
 2251  2254  2255     5 
 2251  2254  2256     5 
 2251  2254  2257     5 
 2255  2254  2256     5 
 2255  2254  2257     5 
 2256  2254  2257     5 
 2254  2257  2258     5 
 2254  2257  2259     5 
 2254  2257  2260     5 
 2258  2257  2259     5 
 2258  2257  2260     5 
 2259  2257  2260     5 
 2257  2260  2261     5 
 2257  2260  2262     5 
 2257  2260  2263     5 
 2261  2260  2262     5 
 2261  2260  2263     5 
 2262  2260  2263     5 
 2260  2263  2264     5 
 2260  2263  2265     5 
 2260  2263  2266     5 
 2264  2263  2265     5 
 2264  2263  2266     5 
 2265  2263  2266     5 
 2263  2266  2267     5 
 2263  2266  2268     5 
 2263  2266  2269     5 
 2267  2266  2268     5 
 2267  2266  2269     5 
 2268  2266  2269     5 
 2266  2269  2270     5 
 2266  2269  2271     5 
 2266  2269  2272     5 
 2270  2269  2271     5 
 2270  2269  2272     5 
 2271  2269  2272     5 
 2269  2272  2273     5 
 2269  2272  2274     5 
 2269  2272  2275     5 
 2273  2272  2274     5 
 2273  2272  2275     5 
 2274  2272  2275     5 
 2272  2275  2276     5 
 2272  2275  2277     5 
 2272  2275  2278     5 
 2276  2275  2277     5 
 2276  2275  2278     5 
 2277  2275  2278     5 
 2280  2279  2283     5 
 2280  2279  2287     5 
 2280  2279  2291     5 
 2283  2279  2287     5 
 2283  2279  2291     5 
 2287  2279  2291     5 
 2279  2280  2281     5 
 2279  2280  2282     5 
 2279  2280  2295     5 
 2281  2280  2282     5 
 2281  2280  2295     5 
 2282  2280  2295     5 
 2279  2283  2284     5 
 2279  2283  2285     5 
 2279  2283  2286     5 
 2284  2283  2285     5 
 2284  2283  2286     5 
 2285  2283  2286     5 
 2279  2287  2288     5 
 2279  2287  2289     5 
 2279  2287  2290     5 
 2288  2287  2289     5 
 2288  2287  2290     5 
 2289  2287  2290     5 
 2279  2291  2292     5 
 2279  2291  2293     5 
 2279  2291  2294     5 
 2292  2291  2293     5 
 2292  2291  2294     5 
 2293  2291  2294     5 
 2280  2295  2296     5 
 2280  2295  2297     5 
 2280  2295  2301     5 
 2296  2295  2297     5 
 2296  2295  2301     5 
 2297  2295  2301     5 
 2299  2298  2300     5 
 2299  2298  2301     5 
 2299  2298  2302     5 
 2300  2298  2301     5 
 2300  2298  2302     5 
 2301  2298  2302     5 
 2295  2301  2298     5 
 2298  2302  2303     5 
 2302  2303  2304     5 
 2302  2303  2305     5 
 2302  2303  2306     5 
 2304  2303  2305     5 
 2304  2303  2306     5 
 2305  2303  2306     5 
 2303  2306  2307     5 
 2303  2306  2308     5 
 2303  2306  2314     5 
 2307  2306  2308     5 
 2307  2306  2314     5 
 2308  2306  2314     5 
 2306  2308  2309     5 
 2308  2309  2310     5 
 2308  2309  2311     5 
 2310  2309  2311     5 
 2309  2311  2312     5 
 2309  2311  2313     5 
 2309  2311  2323     5 
 2312  2311  2313     5 
 2312  2311  2323     5 
 2313  2311  2323     5 
 2306  2314  2315     5 
 2306  2314  2316     5 
 2306  2314  2317     5 
 2315  2314  2316     5 
 2315  2314  2317     5 
 2316  2314  2317     5 
 2314  2317  2318     5 
 2317  2318  2319     5 
 2317  2318  2320     5 
 2319  2318  2320     5 
 2318  2320  2321     5 
 2318  2320  2322     5 
 2318  2320  2370     5 
 2321  2320  2322     5 
 2321  2320  2370     5 
 2322  2320  2370     5 
 2311  2323  2324     5 
 2311  2323  2325     5 
 2311  2323  2326     5 
 2324  2323  2325     5 
 2324  2323  2326     5 
 2325  2323  2326     5 
 2323  2326  2327     5 
 2323  2326  2328     5 
 2323  2326  2329     5 
 2327  2326  2328     5 
 2327  2326  2329     5 
 2328  2326  2329     5 
 2326  2329  2330     5 
 2326  2329  2331     5 
 2326  2329  2332     5 
 2330  2329  2331     5 
 2330  2329  2332     5 
 2331  2329  2332     5 
 2329  2332  2333     5 
 2329  2332  2334     5 
 2329  2332  2335     5 
 2333  2332  2334     5 
 2333  2332  2335     5 
 2334  2332  2335     5 
 2332  2335  2336     5 
 2332  2335  2337     5 
 2332  2335  2338     5 
 2336  2335  2337     5 
 2336  2335  2338     5 
 2337  2335  2338     5 
 2335  2338  2339     5 
 2335  2338  2340     5 
 2335  2338  2341     5 
 2339  2338  2340     5 
 2339  2338  2341     5 
 2340  2338  2341     5 
 2338  2341  2342     5 
 2338  2341  2343     5 
 2342  2341  2343     5 
 2341  2343  2344     5 
 2341  2343  2345     5 
 2344  2343  2345     5 
 2343  2345  2346     5 
 2343  2345  2347     5 
 2343  2345  2348     5 
 2346  2345  2347     5 
 2346  2345  2348     5 
 2347  2345  2348     5 
 2345  2348  2349     5 
 2345  2348  2350     5 
 2345  2348  2351     5 
 2349  2348  2350     5 
 2349  2348  2351     5 
 2350  2348  2351     5 
 2348  2351  2352     5 
 2348  2351  2353     5 
 2348  2351  2354     5 
 2352  2351  2353     5 
 2352  2351  2354     5 
 2353  2351  2354     5 
 2351  2354  2355     5 
 2351  2354  2356     5 
 2351  2354  2357     5 
 2355  2354  2356     5 
 2355  2354  2357     5 
 2356  2354  2357     5 
 2354  2357  2358     5 
 2354  2357  2359     5 
 2354  2357  2360     5 
 2358  2357  2359     5 
 2358  2357  2360     5 
 2359  2357  2360     5 
 2357  2360  2361     5 
 2357  2360  2362     5 
 2357  2360  2363     5 
 2361  2360  2362     5 
 2361  2360  2363     5 
 2362  2360  2363     5 
 2360  2363  2364     5 
 2360  2363  2365     5 
 2360  2363  2366     5 
 2364  2363  2365     5 
 2364  2363  2366     5 
 2365  2363  2366     5 
 2363  2366  2367     5 
 2363  2366  2368     5 
 2363  2366  2369     5 
 2367  2366  2368     5 
 2367  2366  2369     5 
 2368  2366  2369     5 
 2320  2370  2371     5 
 2320  2370  2372     5 
 2320  2370  2373     5 
 2371  2370  2372     5 
 2371  2370  2373     5 
 2372  2370  2373     5 
 2370  2373  2374     5 
 2370  2373  2375     5 
 2370  2373  2376     5 
 2374  2373  2375     5 
 2374  2373  2376     5 
 2375  2373  2376     5 
 2373  2376  2377     5 
 2373  2376  2378     5 
 2373  2376  2379     5 
 2377  2376  2378     5 
 2377  2376  2379     5 
 2378  2376  2379     5 
 2376  2379  2380     5 
 2376  2379  2381     5 
 2376  2379  2382     5 
 2380  2379  2381     5 
 2380  2379  2382     5 
 2381  2379  2382     5 
 2379  2382  2383     5 
 2379  2382  2384     5 
 2379  2382  2385     5 
 2383  2382  2384     5 
 2383  2382  2385     5 
 2384  2382  2385     5 
 2382  2385  2386     5 
 2382  2385  2387     5 
 2382  2385  2388     5 
 2386  2385  2387     5 
 2386  2385  2388     5 
 2387  2385  2388     5 
 2385  2388  2389     5 
 2385  2388  2390     5 
 2385  2388  2391     5 
 2389  2388  2390     5 
 2389  2388  2391     5 
 2390  2388  2391     5 
 2388  2391  2392     5 
 2388  2391  2393     5 
 2388  2391  2394     5 
 2392  2391  2393     5 
 2392  2391  2394     5 
 2393  2391  2394     5 
 2391  2394  2395     5 
 2391  2394  2396     5 
 2391  2394  2397     5 
 2395  2394  2396     5 
 2395  2394  2397     5 
 2396  2394  2397     5 
 2394  2397  2398     5 
 2394  2397  2399     5 
 2394  2397  2400     5 
 2398  2397  2399     5 
 2398  2397  2400     5 
 2399  2397  2400     5 
 2397  2400  2401     5 
 2397  2400  2402     5 
 2397  2400  2403     5 
 2401  2400  2402     5 
 2401  2400  2403     5 
 2402  2400  2403     5 
 2400  2403  2404     5 
 2400  2403  2405     5 
 2400  2403  2406     5 
 2404  2403  2405     5 
 2404  2403  2406     5 
 2405  2403  2406     5 
 2403  2406  2407     5 
 2403  2406  2408     5 
 2403  2406  2409     5 
 2407  2406  2408     5 
 2407  2406  2409     5 
 2408  2406  2409     5 
 2406  2409  2410     5 
 2406  2409  2411     5 
 2406  2409  2412     5 
 2410  2409  2411     5 
 2410  2409  2412     5 
 2411  2409  2412     5 
 2414  2413  2417     5 
 2414  2413  2421     5 
 2414  2413  2425     5 
 2417  2413  2421     5 
 2417  2413  2425     5 
 2421  2413  2425     5 
 2413  2414  2415     5 
 2413  2414  2416     5 
 2413  2414  2429     5 
 2415  2414  2416     5 
 2415  2414  2429     5 
 2416  2414  2429     5 
 2413  2417  2418     5 
 2413  2417  2419     5 
 2413  2417  2420     5 
 2418  2417  2419     5 
 2418  2417  2420     5 
 2419  2417  2420     5 
 2413  2421  2422     5 
 2413  2421  2423     5 
 2413  2421  2424     5 
 2422  2421  2423     5 
 2422  2421  2424     5 
 2423  2421  2424     5 
 2413  2425  2426     5 
 2413  2425  2427     5 
 2413  2425  2428     5 
 2426  2425  2427     5 
 2426  2425  2428     5 
 2427  2425  2428     5 
 2414  2429  2430     5 
 2414  2429  2431     5 
 2414  2429  2435     5 
 2430  2429  2431     5 
 2430  2429  2435     5 
 2431  2429  2435     5 
 2433  2432  2434     5 
 2433  2432  2435     5 
 2433  2432  2436     5 
 2434  2432  2435     5 
 2434  2432  2436     5 
 2435  2432  2436     5 
 2429  2435  2432     5 
 2432  2436  2437     5 
 2436  2437  2438     5 
 2436  2437  2439     5 
 2436  2437  2440     5 
 2438  2437  2439     5 
 2438  2437  2440     5 
 2439  2437  2440     5 
 2437  2440  2441     5 
 2437  2440  2442     5 
 2437  2440  2448     5 
 2441  2440  2442     5 
 2441  2440  2448     5 
 2442  2440  2448     5 
 2440  2442  2443     5 
 2442  2443  2444     5 
 2442  2443  2445     5 
 2444  2443  2445     5 
 2443  2445  2446     5 
 2443  2445  2447     5 
 2443  2445  2457     5 
 2446  2445  2447     5 
 2446  2445  2457     5 
 2447  2445  2457     5 
 2440  2448  2449     5 
 2440  2448  2450     5 
 2440  2448  2451     5 
 2449  2448  2450     5 
 2449  2448  2451     5 
 2450  2448  2451     5 
 2448  2451  2452     5 
 2451  2452  2453     5 
 2451  2452  2454     5 
 2453  2452  2454     5 
 2452  2454  2455     5 
 2452  2454  2456     5 
 2452  2454  2504     5 
 2455  2454  2456     5 
 2455  2454  2504     5 
 2456  2454  2504     5 
 2445  2457  2458     5 
 2445  2457  2459     5 
 2445  2457  2460     5 
 2458  2457  2459     5 
 2458  2457  2460     5 
 2459  2457  2460     5 
 2457  2460  2461     5 
 2457  2460  2462     5 
 2457  2460  2463     5 
 2461  2460  2462     5 
 2461  2460  2463     5 
 2462  2460  2463     5 
 2460  2463  2464     5 
 2460  2463  2465     5 
 2460  2463  2466     5 
 2464  2463  2465     5 
 2464  2463  2466     5 
 2465  2463  2466     5 
 2463  2466  2467     5 
 2463  2466  2468     5 
 2463  2466  2469     5 
 2467  2466  2468     5 
 2467  2466  2469     5 
 2468  2466  2469     5 
 2466  2469  2470     5 
 2466  2469  2471     5 
 2466  2469  2472     5 
 2470  2469  2471     5 
 2470  2469  2472     5 
 2471  2469  2472     5 
 2469  2472  2473     5 
 2469  2472  2474     5 
 2469  2472  2475     5 
 2473  2472  2474     5 
 2473  2472  2475     5 
 2474  2472  2475     5 
 2472  2475  2476     5 
 2472  2475  2477     5 
 2476  2475  2477     5 
 2475  2477  2478     5 
 2475  2477  2479     5 
 2478  2477  2479     5 
 2477  2479  2480     5 
 2477  2479  2481     5 
 2477  2479  2482     5 
 2480  2479  2481     5 
 2480  2479  2482     5 
 2481  2479  2482     5 
 2479  2482  2483     5 
 2479  2482  2484     5 
 2479  2482  2485     5 
 2483  2482  2484     5 
 2483  2482  2485     5 
 2484  2482  2485     5 
 2482  2485  2486     5 
 2482  2485  2487     5 
 2482  2485  2488     5 
 2486  2485  2487     5 
 2486  2485  2488     5 
 2487  2485  2488     5 
 2485  2488  2489     5 
 2485  2488  2490     5 
 2485  2488  2491     5 
 2489  2488  2490     5 
 2489  2488  2491     5 
 2490  2488  2491     5 
 2488  2491  2492     5 
 2488  2491  2493     5 
 2488  2491  2494     5 
 2492  2491  2493     5 
 2492  2491  2494     5 
 2493  2491  2494     5 
 2491  2494  2495     5 
 2491  2494  2496     5 
 2491  2494  2497     5 
 2495  2494  2496     5 
 2495  2494  2497     5 
 2496  2494  2497     5 
 2494  2497  2498     5 
 2494  2497  2499     5 
 2494  2497  2500     5 
 2498  2497  2499     5 
 2498  2497  2500     5 
 2499  2497  2500     5 
 2497  2500  2501     5 
 2497  2500  2502     5 
 2497  2500  2503     5 
 2501  2500  2502     5 
 2501  2500  2503     5 
 2502  2500  2503     5 
 2454  2504  2505     5 
 2454  2504  2506     5 
 2454  2504  2507     5 
 2505  2504  2506     5 
 2505  2504  2507     5 
 2506  2504  2507     5 
 2504  2507  2508     5 
 2504  2507  2509     5 
 2504  2507  2510     5 
 2508  2507  2509     5 
 2508  2507  2510     5 
 2509  2507  2510     5 
 2507  2510  2511     5 
 2507  2510  2512     5 
 2507  2510  2513     5 
 2511  2510  2512     5 
 2511  2510  2513     5 
 2512  2510  2513     5 
 2510  2513  2514     5 
 2510  2513  2515     5 
 2510  2513  2516     5 
 2514  2513  2515     5 
 2514  2513  2516     5 
 2515  2513  2516     5 
 2513  2516  2517     5 
 2513  2516  2518     5 
 2513  2516  2519     5 
 2517  2516  2518     5 
 2517  2516  2519     5 
 2518  2516  2519     5 
 2516  2519  2520     5 
 2516  2519  2521     5 
 2516  2519  2522     5 
 2520  2519  2521     5 
 2520  2519  2522     5 
 2521  2519  2522     5 
 2519  2522  2523     5 
 2519  2522  2524     5 
 2519  2522  2525     5 
 2523  2522  2524     5 
 2523  2522  2525     5 
 2524  2522  2525     5 
 2522  2525  2526     5 
 2522  2525  2527     5 
 2522  2525  2528     5 
 2526  2525  2527     5 
 2526  2525  2528     5 
 2527  2525  2528     5 
 2525  2528  2529     5 
 2525  2528  2530     5 
 2525  2528  2531     5 
 2529  2528  2530     5 
 2529  2528  2531     5 
 2530  2528  2531     5 
 2528  2531  2532     5 
 2528  2531  2533     5 
 2528  2531  2534     5 
 2532  2531  2533     5 
 2532  2531  2534     5 
 2533  2531  2534     5 
 2531  2534  2535     5 
 2531  2534  2536     5 
 2531  2534  2537     5 
 2535  2534  2536     5 
 2535  2534  2537     5 
 2536  2534  2537     5 
 2534  2537  2538     5 
 2534  2537  2539     5 
 2534  2537  2540     5 
 2538  2537  2539     5 
 2538  2537  2540     5 
 2539  2537  2540     5 
 2537  2540  2541     5 
 2537  2540  2542     5 
 2537  2540  2543     5 
 2541  2540  2542     5 
 2541  2540  2543     5 
 2542  2540  2543     5 
 2540  2543  2544     5 
 2540  2543  2545     5 
 2540  2543  2546     5 
 2544  2543  2545     5 
 2544  2543  2546     5 
 2545  2543  2546     5 
 2548  2547  2551     5 
 2548  2547  2555     5 
 2548  2547  2559     5 
 2551  2547  2555     5 
 2551  2547  2559     5 
 2555  2547  2559     5 
 2547  2548  2549     5 
 2547  2548  2550     5 
 2547  2548  2563     5 
 2549  2548  2550     5 
 2549  2548  2563     5 
 2550  2548  2563     5 
 2547  2551  2552     5 
 2547  2551  2553     5 
 2547  2551  2554     5 
 2552  2551  2553     5 
 2552  2551  2554     5 
 2553  2551  2554     5 
 2547  2555  2556     5 
 2547  2555  2557     5 
 2547  2555  2558     5 
 2556  2555  2557     5 
 2556  2555  2558     5 
 2557  2555  2558     5 
 2547  2559  2560     5 
 2547  2559  2561     5 
 2547  2559  2562     5 
 2560  2559  2561     5 
 2560  2559  2562     5 
 2561  2559  2562     5 
 2548  2563  2564     5 
 2548  2563  2565     5 
 2548  2563  2569     5 
 2564  2563  2565     5 
 2564  2563  2569     5 
 2565  2563  2569     5 
 2567  2566  2568     5 
 2567  2566  2569     5 
 2567  2566  2570     5 
 2568  2566  2569     5 
 2568  2566  2570     5 
 2569  2566  2570     5 
 2563  2569  2566     5 
 2566  2570  2571     5 
 2570  2571  2572     5 
 2570  2571  2573     5 
 2570  2571  2574     5 
 2572  2571  2573     5 
 2572  2571  2574     5 
 2573  2571  2574     5 
 2571  2574  2575     5 
 2571  2574  2576     5 
 2571  2574  2582     5 
 2575  2574  2576     5 
 2575  2574  2582     5 
 2576  2574  2582     5 
 2574  2576  2577     5 
 2576  2577  2578     5 
 2576  2577  2579     5 
 2578  2577  2579     5 
 2577  2579  2580     5 
 2577  2579  2581     5 
 2577  2579  2591     5 
 2580  2579  2581     5 
 2580  2579  2591     5 
 2581  2579  2591     5 
 2574  2582  2583     5 
 2574  2582  2584     5 
 2574  2582  2585     5 
 2583  2582  2584     5 
 2583  2582  2585     5 
 2584  2582  2585     5 
 2582  2585  2586     5 
 2585  2586  2587     5 
 2585  2586  2588     5 
 2587  2586  2588     5 
 2586  2588  2589     5 
 2586  2588  2590     5 
 2586  2588  2638     5 
 2589  2588  2590     5 
 2589  2588  2638     5 
 2590  2588  2638     5 
 2579  2591  2592     5 
 2579  2591  2593     5 
 2579  2591  2594     5 
 2592  2591  2593     5 
 2592  2591  2594     5 
 2593  2591  2594     5 
 2591  2594  2595     5 
 2591  2594  2596     5 
 2591  2594  2597     5 
 2595  2594  2596     5 
 2595  2594  2597     5 
 2596  2594  2597     5 
 2594  2597  2598     5 
 2594  2597  2599     5 
 2594  2597  2600     5 
 2598  2597  2599     5 
 2598  2597  2600     5 
 2599  2597  2600     5 
 2597  2600  2601     5 
 2597  2600  2602     5 
 2597  2600  2603     5 
 2601  2600  2602     5 
 2601  2600  2603     5 
 2602  2600  2603     5 
 2600  2603  2604     5 
 2600  2603  2605     5 
 2600  2603  2606     5 
 2604  2603  2605     5 
 2604  2603  2606     5 
 2605  2603  2606     5 
 2603  2606  2607     5 
 2603  2606  2608     5 
 2603  2606  2609     5 
 2607  2606  2608     5 
 2607  2606  2609     5 
 2608  2606  2609     5 
 2606  2609  2610     5 
 2606  2609  2611     5 
 2610  2609  2611     5 
 2609  2611  2612     5 
 2609  2611  2613     5 
 2612  2611  2613     5 
 2611  2613  2614     5 
 2611  2613  2615     5 
 2611  2613  2616     5 
 2614  2613  2615     5 
 2614  2613  2616     5 
 2615  2613  2616     5 
 2613  2616  2617     5 
 2613  2616  2618     5 
 2613  2616  2619     5 
 2617  2616  2618     5 
 2617  2616  2619     5 
 2618  2616  2619     5 
 2616  2619  2620     5 
 2616  2619  2621     5 
 2616  2619  2622     5 
 2620  2619  2621     5 
 2620  2619  2622     5 
 2621  2619  2622     5 
 2619  2622  2623     5 
 2619  2622  2624     5 
 2619  2622  2625     5 
 2623  2622  2624     5 
 2623  2622  2625     5 
 2624  2622  2625     5 
 2622  2625  2626     5 
 2622  2625  2627     5 
 2622  2625  2628     5 
 2626  2625  2627     5 
 2626  2625  2628     5 
 2627  2625  2628     5 
 2625  2628  2629     5 
 2625  2628  2630     5 
 2625  2628  2631     5 
 2629  2628  2630     5 
 2629  2628  2631     5 
 2630  2628  2631     5 
 2628  2631  2632     5 
 2628  2631  2633     5 
 2628  2631  2634     5 
 2632  2631  2633     5 
 2632  2631  2634     5 
 2633  2631  2634     5 
 2631  2634  2635     5 
 2631  2634  2636     5 
 2631  2634  2637     5 
 2635  2634  2636     5 
 2635  2634  2637     5 
 2636  2634  2637     5 
 2588  2638  2639     5 
 2588  2638  2640     5 
 2588  2638  2641     5 
 2639  2638  2640     5 
 2639  2638  2641     5 
 2640  2638  2641     5 
 2638  2641  2642     5 
 2638  2641  2643     5 
 2638  2641  2644     5 
 2642  2641  2643     5 
 2642  2641  2644     5 
 2643  2641  2644     5 
 2641  2644  2645     5 
 2641  2644  2646     5 
 2641  2644  2647     5 
 2645  2644  2646     5 
 2645  2644  2647     5 
 2646  2644  2647     5 
 2644  2647  2648     5 
 2644  2647  2649     5 
 2644  2647  2650     5 
 2648  2647  2649     5 
 2648  2647  2650     5 
 2649  2647  2650     5 
 2647  2650  2651     5 
 2647  2650  2652     5 
 2647  2650  2653     5 
 2651  2650  2652     5 
 2651  2650  2653     5 
 2652  2650  2653     5 
 2650  2653  2654     5 
 2650  2653  2655     5 
 2650  2653  2656     5 
 2654  2653  2655     5 
 2654  2653  2656     5 
 2655  2653  2656     5 
 2653  2656  2657     5 
 2653  2656  2658     5 
 2653  2656  2659     5 
 2657  2656  2658     5 
 2657  2656  2659     5 
 2658  2656  2659     5 
 2656  2659  2660     5 
 2656  2659  2661     5 
 2656  2659  2662     5 
 2660  2659  2661     5 
 2660  2659  2662     5 
 2661  2659  2662     5 
 2659  2662  2663     5 
 2659  2662  2664     5 
 2659  2662  2665     5 
 2663  2662  2664     5 
 2663  2662  2665     5 
 2664  2662  2665     5 
 2662  2665  2666     5 
 2662  2665  2667     5 
 2662  2665  2668     5 
 2666  2665  2667     5 
 2666  2665  2668     5 
 2667  2665  2668     5 
 2665  2668  2669     5 
 2665  2668  2670     5 
 2665  2668  2671     5 
 2669  2668  2670     5 
 2669  2668  2671     5 
 2670  2668  2671     5 
 2668  2671  2672     5 
 2668  2671  2673     5 
 2668  2671  2674     5 
 2672  2671  2673     5 
 2672  2671  2674     5 
 2673  2671  2674     5 
 2671  2674  2675     5 
 2671  2674  2676     5 
 2671  2674  2677     5 
 2675  2674  2676     5 
 2675  2674  2677     5 
 2676  2674  2677     5 
 2674  2677  2678     5 
 2674  2677  2679     5 
 2674  2677  2680     5 
 2678  2677  2679     5 
 2678  2677  2680     5 
 2679  2677  2680     5 
 2682  2681  2685     5 
 2682  2681  2689     5 
 2682  2681  2693     5 
 2685  2681  2689     5 
 2685  2681  2693     5 
 2689  2681  2693     5 
 2681  2682  2683     5 
 2681  2682  2684     5 
 2681  2682  2697     5 
 2683  2682  2684     5 
 2683  2682  2697     5 
 2684  2682  2697     5 
 2681  2685  2686     5 
 2681  2685  2687     5 
 2681  2685  2688     5 
 2686  2685  2687     5 
 2686  2685  2688     5 
 2687  2685  2688     5 
 2681  2689  2690     5 
 2681  2689  2691     5 
 2681  2689  2692     5 
 2690  2689  2691     5 
 2690  2689  2692     5 
 2691  2689  2692     5 
 2681  2693  2694     5 
 2681  2693  2695     5 
 2681  2693  2696     5 
 2694  2693  2695     5 
 2694  2693  2696     5 
 2695  2693  2696     5 
 2682  2697  2698     5 
 2682  2697  2699     5 
 2682  2697  2703     5 
 2698  2697  2699     5 
 2698  2697  2703     5 
 2699  2697  2703     5 
 2701  2700  2702     5 
 2701  2700  2703     5 
 2701  2700  2704     5 
 2702  2700  2703     5 
 2702  2700  2704     5 
 2703  2700  2704     5 
 2697  2703  2700     5 
 2700  2704  2705     5 
 2704  2705  2706     5 
 2704  2705  2707     5 
 2704  2705  2708     5 
 2706  2705  2707     5 
 2706  2705  2708     5 
 2707  2705  2708     5 
 2705  2708  2709     5 
 2705  2708  2710     5 
 2705  2708  2716     5 
 2709  2708  2710     5 
 2709  2708  2716     5 
 2710  2708  2716     5 
 2708  2710  2711     5 
 2710  2711  2712     5 
 2710  2711  2713     5 
 2712  2711  2713     5 
 2711  2713  2714     5 
 2711  2713  2715     5 
 2711  2713  2725     5 
 2714  2713  2715     5 
 2714  2713  2725     5 
 2715  2713  2725     5 
 2708  2716  2717     5 
 2708  2716  2718     5 
 2708  2716  2719     5 
 2717  2716  2718     5 
 2717  2716  2719     5 
 2718  2716  2719     5 
 2716  2719  2720     5 
 2719  2720  2721     5 
 2719  2720  2722     5 
 2721  2720  2722     5 
 2720  2722  2723     5 
 2720  2722  2724     5 
 2720  2722  2772     5 
 2723  2722  2724     5 
 2723  2722  2772     5 
 2724  2722  2772     5 
 2713  2725  2726     5 
 2713  2725  2727     5 
 2713  2725  2728     5 
 2726  2725  2727     5 
 2726  2725  2728     5 
 2727  2725  2728     5 
 2725  2728  2729     5 
 2725  2728  2730     5 
 2725  2728  2731     5 
 2729  2728  2730     5 
 2729  2728  2731     5 
 2730  2728  2731     5 
 2728  2731  2732     5 
 2728  2731  2733     5 
 2728  2731  2734     5 
 2732  2731  2733     5 
 2732  2731  2734     5 
 2733  2731  2734     5 
 2731  2734  2735     5 
 2731  2734  2736     5 
 2731  2734  2737     5 
 2735  2734  2736     5 
 2735  2734  2737     5 
 2736  2734  2737     5 
 2734  2737  2738     5 
 2734  2737  2739     5 
 2734  2737  2740     5 
 2738  2737  2739     5 
 2738  2737  2740     5 
 2739  2737  2740     5 
 2737  2740  2741     5 
 2737  2740  2742     5 
 2737  2740  2743     5 
 2741  2740  2742     5 
 2741  2740  2743     5 
 2742  2740  2743     5 
 2740  2743  2744     5 
 2740  2743  2745     5 
 2744  2743  2745     5 
 2743  2745  2746     5 
 2743  2745  2747     5 
 2746  2745  2747     5 
 2745  2747  2748     5 
 2745  2747  2749     5 
 2745  2747  2750     5 
 2748  2747  2749     5 
 2748  2747  2750     5 
 2749  2747  2750     5 
 2747  2750  2751     5 
 2747  2750  2752     5 
 2747  2750  2753     5 
 2751  2750  2752     5 
 2751  2750  2753     5 
 2752  2750  2753     5 
 2750  2753  2754     5 
 2750  2753  2755     5 
 2750  2753  2756     5 
 2754  2753  2755     5 
 2754  2753  2756     5 
 2755  2753  2756     5 
 2753  2756  2757     5 
 2753  2756  2758     5 
 2753  2756  2759     5 
 2757  2756  2758     5 
 2757  2756  2759     5 
 2758  2756  2759     5 
 2756  2759  2760     5 
 2756  2759  2761     5 
 2756  2759  2762     5 
 2760  2759  2761     5 
 2760  2759  2762     5 
 2761  2759  2762     5 
 2759  2762  2763     5 
 2759  2762  2764     5 
 2759  2762  2765     5 
 2763  2762  2764     5 
 2763  2762  2765     5 
 2764  2762  2765     5 
 2762  2765  2766     5 
 2762  2765  2767     5 
 2762  2765  2768     5 
 2766  2765  2767     5 
 2766  2765  2768     5 
 2767  2765  2768     5 
 2765  2768  2769     5 
 2765  2768  2770     5 
 2765  2768  2771     5 
 2769  2768  2770     5 
 2769  2768  2771     5 
 2770  2768  2771     5 
 2722  2772  2773     5 
 2722  2772  2774     5 
 2722  2772  2775     5 
 2773  2772  2774     5 
 2773  2772  2775     5 
 2774  2772  2775     5 
 2772  2775  2776     5 
 2772  2775  2777     5 
 2772  2775  2778     5 
 2776  2775  2777     5 
 2776  2775  2778     5 
 2777  2775  2778     5 
 2775  2778  2779     5 
 2775  2778  2780     5 
 2775  2778  2781     5 
 2779  2778  2780     5 
 2779  2778  2781     5 
 2780  2778  2781     5 
 2778  2781  2782     5 
 2778  2781  2783     5 
 2778  2781  2784     5 
 2782  2781  2783     5 
 2782  2781  2784     5 
 2783  2781  2784     5 
 2781  2784  2785     5 
 2781  2784  2786     5 
 2781  2784  2787     5 
 2785  2784  2786     5 
 2785  2784  2787     5 
 2786  2784  2787     5 
 2784  2787  2788     5 
 2784  2787  2789     5 
 2784  2787  2790     5 
 2788  2787  2789     5 
 2788  2787  2790     5 
 2789  2787  2790     5 
 2787  2790  2791     5 
 2787  2790  2792     5 
 2787  2790  2793     5 
 2791  2790  2792     5 
 2791  2790  2793     5 
 2792  2790  2793     5 
 2790  2793  2794     5 
 2790  2793  2795     5 
 2790  2793  2796     5 
 2794  2793  2795     5 
 2794  2793  2796     5 
 2795  2793  2796     5 
 2793  2796  2797     5 
 2793  2796  2798     5 
 2793  2796  2799     5 
 2797  2796  2798     5 
 2797  2796  2799     5 
 2798  2796  2799     5 
 2796  2799  2800     5 
 2796  2799  2801     5 
 2796  2799  2802     5 
 2800  2799  2801     5 
 2800  2799  2802     5 
 2801  2799  2802     5 
 2799  2802  2803     5 
 2799  2802  2804     5 
 2799  2802  2805     5 
 2803  2802  2804     5 
 2803  2802  2805     5 
 2804  2802  2805     5 
 2802  2805  2806     5 
 2802  2805  2807     5 
 2802  2805  2808     5 
 2806  2805  2807     5 
 2806  2805  2808     5 
 2807  2805  2808     5 
 2805  2808  2809     5 
 2805  2808  2810     5 
 2805  2808  2811     5 
 2809  2808  2810     5 
 2809  2808  2811     5 
 2810  2808  2811     5 
 2808  2811  2812     5 
 2808  2811  2813     5 
 2808  2811  2814     5 
 2812  2811  2813     5 
 2812  2811  2814     5 
 2813  2811  2814     5 
 2816  2815  2819     5 
 2816  2815  2823     5 
 2816  2815  2827     5 
 2819  2815  2823     5 
 2819  2815  2827     5 
 2823  2815  2827     5 
 2815  2816  2817     5 
 2815  2816  2818     5 
 2815  2816  2831     5 
 2817  2816  2818     5 
 2817  2816  2831     5 
 2818  2816  2831     5 
 2815  2819  2820     5 
 2815  2819  2821     5 
 2815  2819  2822     5 
 2820  2819  2821     5 
 2820  2819  2822     5 
 2821  2819  2822     5 
 2815  2823  2824     5 
 2815  2823  2825     5 
 2815  2823  2826     5 
 2824  2823  2825     5 
 2824  2823  2826     5 
 2825  2823  2826     5 
 2815  2827  2828     5 
 2815  2827  2829     5 
 2815  2827  2830     5 
 2828  2827  2829     5 
 2828  2827  2830     5 
 2829  2827  2830     5 
 2816  2831  2832     5 
 2816  2831  2833     5 
 2816  2831  2837     5 
 2832  2831  2833     5 
 2832  2831  2837     5 
 2833  2831  2837     5 
 2835  2834  2836     5 
 2835  2834  2837     5 
 2835  2834  2838     5 
 2836  2834  2837     5 
 2836  2834  2838     5 
 2837  2834  2838     5 
 2831  2837  2834     5 
 2834  2838  2839     5 
 2838  2839  2840     5 
 2838  2839  2841     5 
 2838  2839  2842     5 
 2840  2839  2841     5 
 2840  2839  2842     5 
 2841  2839  2842     5 
 2839  2842  2843     5 
 2839  2842  2844     5 
 2839  2842  2850     5 
 2843  2842  2844     5 
 2843  2842  2850     5 
 2844  2842  2850     5 
 2842  2844  2845     5 
 2844  2845  2846     5 
 2844  2845  2847     5 
 2846  2845  2847     5 
 2845  2847  2848     5 
 2845  2847  2849     5 
 2845  2847  2859     5 
 2848  2847  2849     5 
 2848  2847  2859     5 
 2849  2847  2859     5 
 2842  2850  2851     5 
 2842  2850  2852     5 
 2842  2850  2853     5 
 2851  2850  2852     5 
 2851  2850  2853     5 
 2852  2850  2853     5 
 2850  2853  2854     5 
 2853  2854  2855     5 
 2853  2854  2856     5 
 2855  2854  2856     5 
 2854  2856  2857     5 
 2854  2856  2858     5 
 2854  2856  2906     5 
 2857  2856  2858     5 
 2857  2856  2906     5 
 2858  2856  2906     5 
 2847  2859  2860     5 
 2847  2859  2861     5 
 2847  2859  2862     5 
 2860  2859  2861     5 
 2860  2859  2862     5 
 2861  2859  2862     5 
 2859  2862  2863     5 
 2859  2862  2864     5 
 2859  2862  2865     5 
 2863  2862  2864     5 
 2863  2862  2865     5 
 2864  2862  2865     5 
 2862  2865  2866     5 
 2862  2865  2867     5 
 2862  2865  2868     5 
 2866  2865  2867     5 
 2866  2865  2868     5 
 2867  2865  2868     5 
 2865  2868  2869     5 
 2865  2868  2870     5 
 2865  2868  2871     5 
 2869  2868  2870     5 
 2869  2868  2871     5 
 2870  2868  2871     5 
 2868  2871  2872     5 
 2868  2871  2873     5 
 2868  2871  2874     5 
 2872  2871  2873     5 
 2872  2871  2874     5 
 2873  2871  2874     5 
 2871  2874  2875     5 
 2871  2874  2876     5 
 2871  2874  2877     5 
 2875  2874  2876     5 
 2875  2874  2877     5 
 2876  2874  2877     5 
 2874  2877  2878     5 
 2874  2877  2879     5 
 2878  2877  2879     5 
 2877  2879  2880     5 
 2877  2879  2881     5 
 2880  2879  2881     5 
 2879  2881  2882     5 
 2879  2881  2883     5 
 2879  2881  2884     5 
 2882  2881  2883     5 
 2882  2881  2884     5 
 2883  2881  2884     5 
 2881  2884  2885     5 
 2881  2884  2886     5 
 2881  2884  2887     5 
 2885  2884  2886     5 
 2885  2884  2887     5 
 2886  2884  2887     5 
 2884  2887  2888     5 
 2884  2887  2889     5 
 2884  2887  2890     5 
 2888  2887  2889     5 
 2888  2887  2890     5 
 2889  2887  2890     5 
 2887  2890  2891     5 
 2887  2890  2892     5 
 2887  2890  2893     5 
 2891  2890  2892     5 
 2891  2890  2893     5 
 2892  2890  2893     5 
 2890  2893  2894     5 
 2890  2893  2895     5 
 2890  2893  2896     5 
 2894  2893  2895     5 
 2894  2893  2896     5 
 2895  2893  2896     5 
 2893  2896  2897     5 
 2893  2896  2898     5 
 2893  2896  2899     5 
 2897  2896  2898     5 
 2897  2896  2899     5 
 2898  2896  2899     5 
 2896  2899  2900     5 
 2896  2899  2901     5 
 2896  2899  2902     5 
 2900  2899  2901     5 
 2900  2899  2902     5 
 2901  2899  2902     5 
 2899  2902  2903     5 
 2899  2902  2904     5 
 2899  2902  2905     5 
 2903  2902  2904     5 
 2903  2902  2905     5 
 2904  2902  2905     5 
 2856  2906  2907     5 
 2856  2906  2908     5 
 2856  2906  2909     5 
 2907  2906  2908     5 
 2907  2906  2909     5 
 2908  2906  2909     5 
 2906  2909  2910     5 
 2906  2909  2911     5 
 2906  2909  2912     5 
 2910  2909  2911     5 
 2910  2909  2912     5 
 2911  2909  2912     5 
 2909  2912  2913     5 
 2909  2912  2914     5 
 2909  2912  2915     5 
 2913  2912  2914     5 
 2913  2912  2915     5 
 2914  2912  2915     5 
 2912  2915  2916     5 
 2912  2915  2917     5 
 2912  2915  2918     5 
 2916  2915  2917     5 
 2916  2915  2918     5 
 2917  2915  2918     5 
 2915  2918  2919     5 
 2915  2918  2920     5 
 2915  2918  2921     5 
 2919  2918  2920     5 
 2919  2918  2921     5 
 2920  2918  2921     5 
 2918  2921  2922     5 
 2918  2921  2923     5 
 2918  2921  2924     5 
 2922  2921  2923     5 
 2922  2921  2924     5 
 2923  2921  2924     5 
 2921  2924  2925     5 
 2921  2924  2926     5 
 2921  2924  2927     5 
 2925  2924  2926     5 
 2925  2924  2927     5 
 2926  2924  2927     5 
 2924  2927  2928     5 
 2924  2927  2929     5 
 2924  2927  2930     5 
 2928  2927  2929     5 
 2928  2927  2930     5 
 2929  2927  2930     5 
 2927  2930  2931     5 
 2927  2930  2932     5 
 2927  2930  2933     5 
 2931  2930  2932     5 
 2931  2930  2933     5 
 2932  2930  2933     5 
 2930  2933  2934     5 
 2930  2933  2935     5 
 2930  2933  2936     5 
 2934  2933  2935     5 
 2934  2933  2936     5 
 2935  2933  2936     5 
 2933  2936  2937     5 
 2933  2936  2938     5 
 2933  2936  2939     5 
 2937  2936  2938     5 
 2937  2936  2939     5 
 2938  2936  2939     5 
 2936  2939  2940     5 
 2936  2939  2941     5 
 2936  2939  2942     5 
 2940  2939  2941     5 
 2940  2939  2942     5 
 2941  2939  2942     5 
 2939  2942  2943     5 
 2939  2942  2944     5 
 2939  2942  2945     5 
 2943  2942  2944     5 
 2943  2942  2945     5 
 2944  2942  2945     5 
 2942  2945  2946     5 
 2942  2945  2947     5 
 2942  2945  2948     5 
 2946  2945  2947     5 
 2946  2945  2948     5 
 2947  2945  2948     5 
 2950  2949  2953     5 
 2950  2949  2957     5 
 2950  2949  2961     5 
 2953  2949  2957     5 
 2953  2949  2961     5 
 2957  2949  2961     5 
 2949  2950  2951     5 
 2949  2950  2952     5 
 2949  2950  2965     5 
 2951  2950  2952     5 
 2951  2950  2965     5 
 2952  2950  2965     5 
 2949  2953  2954     5 
 2949  2953  2955     5 
 2949  2953  2956     5 
 2954  2953  2955     5 
 2954  2953  2956     5 
 2955  2953  2956     5 
 2949  2957  2958     5 
 2949  2957  2959     5 
 2949  2957  2960     5 
 2958  2957  2959     5 
 2958  2957  2960     5 
 2959  2957  2960     5 
 2949  2961  2962     5 
 2949  2961  2963     5 
 2949  2961  2964     5 
 2962  2961  2963     5 
 2962  2961  2964     5 
 2963  2961  2964     5 
 2950  2965  2966     5 
 2950  2965  2967     5 
 2950  2965  2971     5 
 2966  2965  2967     5 
 2966  2965  2971     5 
 2967  2965  2971     5 
 2969  2968  2970     5 
 2969  2968  2971     5 
 2969  2968  2972     5 
 2970  2968  2971     5 
 2970  2968  2972     5 
 2971  2968  2972     5 
 2965  2971  2968     5 
 2968  2972  2973     5 
 2972  2973  2974     5 
 2972  2973  2975     5 
 2972  2973  2976     5 
 2974  2973  2975     5 
 2974  2973  2976     5 
 2975  2973  2976     5 
 2973  2976  2977     5 
 2973  2976  2978     5 
 2973  2976  2984     5 
 2977  2976  2978     5 
 2977  2976  2984     5 
 2978  2976  2984     5 
 2976  2978  2979     5 
 2978  2979  2980     5 
 2978  2979  2981     5 
 2980  2979  2981     5 
 2979  2981  2982     5 
 2979  2981  2983     5 
 2979  2981  2993     5 
 2982  2981  2983     5 
 2982  2981  2993     5 
 2983  2981  2993     5 
 2976  2984  2985     5 
 2976  2984  2986     5 
 2976  2984  2987     5 
 2985  2984  2986     5 
 2985  2984  2987     5 
 2986  2984  2987     5 
 2984  2987  2988     5 
 2987  2988  2989     5 
 2987  2988  2990     5 
 2989  2988  2990     5 
 2988  2990  2991     5 
 2988  2990  2992     5 
 2988  2990  3040     5 
 2991  2990  2992     5 
 2991  2990  3040     5 
 2992  2990  3040     5 
 2981  2993  2994     5 
 2981  2993  2995     5 
 2981  2993  2996     5 
 2994  2993  2995     5 
 2994  2993  2996     5 
 2995  2993  2996     5 
 2993  2996  2997     5 
 2993  2996  2998     5 
 2993  2996  2999     5 
 2997  2996  2998     5 
 2997  2996  2999     5 
 2998  2996  2999     5 
 2996  2999  3000     5 
 2996  2999  3001     5 
 2996  2999  3002     5 
 3000  2999  3001     5 
 3000  2999  3002     5 
 3001  2999  3002     5 
 2999  3002  3003     5 
 2999  3002  3004     5 
 2999  3002  3005     5 
 3003  3002  3004     5 
 3003  3002  3005     5 
 3004  3002  3005     5 
 3002  3005  3006     5 
 3002  3005  3007     5 
 3002  3005  3008     5 
 3006  3005  3007     5 
 3006  3005  3008     5 
 3007  3005  3008     5 
 3005  3008  3009     5 
 3005  3008  3010     5 
 3005  3008  3011     5 
 3009  3008  3010     5 
 3009  3008  3011     5 
 3010  3008  3011     5 
 3008  3011  3012     5 
 3008  3011  3013     5 
 3012  3011  3013     5 
 3011  3013  3014     5 
 3011  3013  3015     5 
 3014  3013  3015     5 
 3013  3015  3016     5 
 3013  3015  3017     5 
 3013  3015  3018     5 
 3016  3015  3017     5 
 3016  3015  3018     5 
 3017  3015  3018     5 
 3015  3018  3019     5 
 3015  3018  3020     5 
 3015  3018  3021     5 
 3019  3018  3020     5 
 3019  3018  3021     5 
 3020  3018  3021     5 
 3018  3021  3022     5 
 3018  3021  3023     5 
 3018  3021  3024     5 
 3022  3021  3023     5 
 3022  3021  3024     5 
 3023  3021  3024     5 
 3021  3024  3025     5 
 3021  3024  3026     5 
 3021  3024  3027     5 
 3025  3024  3026     5 
 3025  3024  3027     5 
 3026  3024  3027     5 
 3024  3027  3028     5 
 3024  3027  3029     5 
 3024  3027  3030     5 
 3028  3027  3029     5 
 3028  3027  3030     5 
 3029  3027  3030     5 
 3027  3030  3031     5 
 3027  3030  3032     5 
 3027  3030  3033     5 
 3031  3030  3032     5 
 3031  3030  3033     5 
 3032  3030  3033     5 
 3030  3033  3034     5 
 3030  3033  3035     5 
 3030  3033  3036     5 
 3034  3033  3035     5 
 3034  3033  3036     5 
 3035  3033  3036     5 
 3033  3036  3037     5 
 3033  3036  3038     5 
 3033  3036  3039     5 
 3037  3036  3038     5 
 3037  3036  3039     5 
 3038  3036  3039     5 
 2990  3040  3041     5 
 2990  3040  3042     5 
 2990  3040  3043     5 
 3041  3040  3042     5 
 3041  3040  3043     5 
 3042  3040  3043     5 
 3040  3043  3044     5 
 3040  3043  3045     5 
 3040  3043  3046     5 
 3044  3043  3045     5 
 3044  3043  3046     5 
 3045  3043  3046     5 
 3043  3046  3047     5 
 3043  3046  3048     5 
 3043  3046  3049     5 
 3047  3046  3048     5 
 3047  3046  3049     5 
 3048  3046  3049     5 
 3046  3049  3050     5 
 3046  3049  3051     5 
 3046  3049  3052     5 
 3050  3049  3051     5 
 3050  3049  3052     5 
 3051  3049  3052     5 
 3049  3052  3053     5 
 3049  3052  3054     5 
 3049  3052  3055     5 
 3053  3052  3054     5 
 3053  3052  3055     5 
 3054  3052  3055     5 
 3052  3055  3056     5 
 3052  3055  3057     5 
 3052  3055  3058     5 
 3056  3055  3057     5 
 3056  3055  3058     5 
 3057  3055  3058     5 
 3055  3058  3059     5 
 3055  3058  3060     5 
 3055  3058  3061     5 
 3059  3058  3060     5 
 3059  3058  3061     5 
 3060  3058  3061     5 
 3058  3061  3062     5 
 3058  3061  3063     5 
 3058  3061  3064     5 
 3062  3061  3063     5 
 3062  3061  3064     5 
 3063  3061  3064     5 
 3061  3064  3065     5 
 3061  3064  3066     5 
 3061  3064  3067     5 
 3065  3064  3066     5 
 3065  3064  3067     5 
 3066  3064  3067     5 
 3064  3067  3068     5 
 3064  3067  3069     5 
 3064  3067  3070     5 
 3068  3067  3069     5 
 3068  3067  3070     5 
 3069  3067  3070     5 
 3067  3070  3071     5 
 3067  3070  3072     5 
 3067  3070  3073     5 
 3071  3070  3072     5 
 3071  3070  3073     5 
 3072  3070  3073     5 
 3070  3073  3074     5 
 3070  3073  3075     5 
 3070  3073  3076     5 
 3074  3073  3075     5 
 3074  3073  3076     5 
 3075  3073  3076     5 
 3073  3076  3077     5 
 3073  3076  3078     5 
 3073  3076  3079     5 
 3077  3076  3078     5 
 3077  3076  3079     5 
 3078  3076  3079     5 
 3076  3079  3080     5 
 3076  3079  3081     5 
 3076  3079  3082     5 
 3080  3079  3081     5 
 3080  3079  3082     5 
 3081  3079  3082     5 
 3084  3083  3087     5 
 3084  3083  3091     5 
 3084  3083  3095     5 
 3087  3083  3091     5 
 3087  3083  3095     5 
 3091  3083  3095     5 
 3083  3084  3085     5 
 3083  3084  3086     5 
 3083  3084  3099     5 
 3085  3084  3086     5 
 3085  3084  3099     5 
 3086  3084  3099     5 
 3083  3087  3088     5 
 3083  3087  3089     5 
 3083  3087  3090     5 
 3088  3087  3089     5 
 3088  3087  3090     5 
 3089  3087  3090     5 
 3083  3091  3092     5 
 3083  3091  3093     5 
 3083  3091  3094     5 
 3092  3091  3093     5 
 3092  3091  3094     5 
 3093  3091  3094     5 
 3083  3095  3096     5 
 3083  3095  3097     5 
 3083  3095  3098     5 
 3096  3095  3097     5 
 3096  3095  3098     5 
 3097  3095  3098     5 
 3084  3099  3100     5 
 3084  3099  3101     5 
 3084  3099  3105     5 
 3100  3099  3101     5 
 3100  3099  3105     5 
 3101  3099  3105     5 
 3103  3102  3104     5 
 3103  3102  3105     5 
 3103  3102  3106     5 
 3104  3102  3105     5 
 3104  3102  3106     5 
 3105  3102  3106     5 
 3099  3105  3102     5 
 3102  3106  3107     5 
 3106  3107  3108     5 
 3106  3107  3109     5 
 3106  3107  3110     5 
 3108  3107  3109     5 
 3108  3107  3110     5 
 3109  3107  3110     5 
 3107  3110  3111     5 
 3107  3110  3112     5 
 3107  3110  3118     5 
 3111  3110  3112     5 
 3111  3110  3118     5 
 3112  3110  3118     5 
 3110  3112  3113     5 
 3112  3113  3114     5 
 3112  3113  3115     5 
 3114  3113  3115     5 
 3113  3115  3116     5 
 3113  3115  3117     5 
 3113  3115  3127     5 
 3116  3115  3117     5 
 3116  3115  3127     5 
 3117  3115  3127     5 
 3110  3118  3119     5 
 3110  3118  3120     5 
 3110  3118  3121     5 
 3119  3118  3120     5 
 3119  3118  3121     5 
 3120  3118  3121     5 
 3118  3121  3122     5 
 3121  3122  3123     5 
 3121  3122  3124     5 
 3123  3122  3124     5 
 3122  3124  3125     5 
 3122  3124  3126     5 
 3122  3124  3174     5 
 3125  3124  3126     5 
 3125  3124  3174     5 
 3126  3124  3174     5 
 3115  3127  3128     5 
 3115  3127  3129     5 
 3115  3127  3130     5 
 3128  3127  3129     5 
 3128  3127  3130     5 
 3129  3127  3130     5 
 3127  3130  3131     5 
 3127  3130  3132     5 
 3127  3130  3133     5 
 3131  3130  3132     5 
 3131  3130  3133     5 
 3132  3130  3133     5 
 3130  3133  3134     5 
 3130  3133  3135     5 
 3130  3133  3136     5 
 3134  3133  3135     5 
 3134  3133  3136     5 
 3135  3133  3136     5 
 3133  3136  3137     5 
 3133  3136  3138     5 
 3133  3136  3139     5 
 3137  3136  3138     5 
 3137  3136  3139     5 
 3138  3136  3139     5 
 3136  3139  3140     5 
 3136  3139  3141     5 
 3136  3139  3142     5 
 3140  3139  3141     5 
 3140  3139  3142     5 
 3141  3139  3142     5 
 3139  3142  3143     5 
 3139  3142  3144     5 
 3139  3142  3145     5 
 3143  3142  3144     5 
 3143  3142  3145     5 
 3144  3142  3145     5 
 3142  3145  3146     5 
 3142  3145  3147     5 
 3146  3145  3147     5 
 3145  3147  3148     5 
 3145  3147  3149     5 
 3148  3147  3149     5 
 3147  3149  3150     5 
 3147  3149  3151     5 
 3147  3149  3152     5 
 3150  3149  3151     5 
 3150  3149  3152     5 
 3151  3149  3152     5 
 3149  3152  3153     5 
 3149  3152  3154     5 
 3149  3152  3155     5 
 3153  3152  3154     5 
 3153  3152  3155     5 
 3154  3152  3155     5 
 3152  3155  3156     5 
 3152  3155  3157     5 
 3152  3155  3158     5 
 3156  3155  3157     5 
 3156  3155  3158     5 
 3157  3155  3158     5 
 3155  3158  3159     5 
 3155  3158  3160     5 
 3155  3158  3161     5 
 3159  3158  3160     5 
 3159  3158  3161     5 
 3160  3158  3161     5 
 3158  3161  3162     5 
 3158  3161  3163     5 
 3158  3161  3164     5 
 3162  3161  3163     5 
 3162  3161  3164     5 
 3163  3161  3164     5 
 3161  3164  3165     5 
 3161  3164  3166     5 
 3161  3164  3167     5 
 3165  3164  3166     5 
 3165  3164  3167     5 
 3166  3164  3167     5 
 3164  3167  3168     5 
 3164  3167  3169     5 
 3164  3167  3170     5 
 3168  3167  3169     5 
 3168  3167  3170     5 
 3169  3167  3170     5 
 3167  3170  3171     5 
 3167  3170  3172     5 
 3167  3170  3173     5 
 3171  3170  3172     5 
 3171  3170  3173     5 
 3172  3170  3173     5 
 3124  3174  3175     5 
 3124  3174  3176     5 
 3124  3174  3177     5 
 3175  3174  3176     5 
 3175  3174  3177     5 
 3176  3174  3177     5 
 3174  3177  3178     5 
 3174  3177  3179     5 
 3174  3177  3180     5 
 3178  3177  3179     5 
 3178  3177  3180     5 
 3179  3177  3180     5 
 3177  3180  3181     5 
 3177  3180  3182     5 
 3177  3180  3183     5 
 3181  3180  3182     5 
 3181  3180  3183     5 
 3182  3180  3183     5 
 3180  3183  3184     5 
 3180  3183  3185     5 
 3180  3183  3186     5 
 3184  3183  3185     5 
 3184  3183  3186     5 
 3185  3183  3186     5 
 3183  3186  3187     5 
 3183  3186  3188     5 
 3183  3186  3189     5 
 3187  3186  3188     5 
 3187  3186  3189     5 
 3188  3186  3189     5 
 3186  3189  3190     5 
 3186  3189  3191     5 
 3186  3189  3192     5 
 3190  3189  3191     5 
 3190  3189  3192     5 
 3191  3189  3192     5 
 3189  3192  3193     5 
 3189  3192  3194     5 
 3189  3192  3195     5 
 3193  3192  3194     5 
 3193  3192  3195     5 
 3194  3192  3195     5 
 3192  3195  3196     5 
 3192  3195  3197     5 
 3192  3195  3198     5 
 3196  3195  3197     5 
 3196  3195  3198     5 
 3197  3195  3198     5 
 3195  3198  3199     5 
 3195  3198  3200     5 
 3195  3198  3201     5 
 3199  3198  3200     5 
 3199  3198  3201     5 
 3200  3198  3201     5 
 3198  3201  3202     5 
 3198  3201  3203     5 
 3198  3201  3204     5 
 3202  3201  3203     5 
 3202  3201  3204     5 
 3203  3201  3204     5 
 3201  3204  3205     5 
 3201  3204  3206     5 
 3201  3204  3207     5 
 3205  3204  3206     5 
 3205  3204  3207     5 
 3206  3204  3207     5 
 3204  3207  3208     5 
 3204  3207  3209     5 
 3204  3207  3210     5 
 3208  3207  3209     5 
 3208  3207  3210     5 
 3209  3207  3210     5 
 3207  3210  3211     5 
 3207  3210  3212     5 
 3207  3210  3213     5 
 3211  3210  3212     5 
 3211  3210  3213     5 
 3212  3210  3213     5 
 3210  3213  3214     5 
 3210  3213  3215     5 
 3210  3213  3216     5 
 3214  3213  3215     5 
 3214  3213  3216     5 
 3215  3213  3216     5 
 3218  3217  3221     5 
 3218  3217  3225     5 
 3218  3217  3229     5 
 3221  3217  3225     5 
 3221  3217  3229     5 
 3225  3217  3229     5 
 3217  3218  3219     5 
 3217  3218  3220     5 
 3217  3218  3233     5 
 3219  3218  3220     5 
 3219  3218  3233     5 
 3220  3218  3233     5 
 3217  3221  3222     5 
 3217  3221  3223     5 
 3217  3221  3224     5 
 3222  3221  3223     5 
 3222  3221  3224     5 
 3223  3221  3224     5 
 3217  3225  3226     5 
 3217  3225  3227     5 
 3217  3225  3228     5 
 3226  3225  3227     5 
 3226  3225  3228     5 
 3227  3225  3228     5 
 3217  3229  3230     5 
 3217  3229  3231     5 
 3217  3229  3232     5 
 3230  3229  3231     5 
 3230  3229  3232     5 
 3231  3229  3232     5 
 3218  3233  3234     5 
 3218  3233  3235     5 
 3218  3233  3239     5 
 3234  3233  3235     5 
 3234  3233  3239     5 
 3235  3233  3239     5 
 3237  3236  3238     5 
 3237  3236  3239     5 
 3237  3236  3240     5 
 3238  3236  3239     5 
 3238  3236  3240     5 
 3239  3236  3240     5 
 3233  3239  3236     5 
 3236  3240  3241     5 
 3240  3241  3242     5 
 3240  3241  3243     5 
 3240  3241  3244     5 
 3242  3241  3243     5 
 3242  3241  3244     5 
 3243  3241  3244     5 
 3241  3244  3245     5 
 3241  3244  3246     5 
 3241  3244  3252     5 
 3245  3244  3246     5 
 3245  3244  3252     5 
 3246  3244  3252     5 
 3244  3246  3247     5 
 3246  3247  3248     5 
 3246  3247  3249     5 
 3248  3247  3249     5 
 3247  3249  3250     5 
 3247  3249  3251     5 
 3247  3249  3261     5 
 3250  3249  3251     5 
 3250  3249  3261     5 
 3251  3249  3261     5 
 3244  3252  3253     5 
 3244  3252  3254     5 
 3244  3252  3255     5 
 3253  3252  3254     5 
 3253  3252  3255     5 
 3254  3252  3255     5 
 3252  3255  3256     5 
 3255  3256  3257     5 
 3255  3256  3258     5 
 3257  3256  3258     5 
 3256  3258  3259     5 
 3256  3258  3260     5 
 3256  3258  3308     5 
 3259  3258  3260     5 
 3259  3258  3308     5 
 3260  3258  3308     5 
 3249  3261  3262     5 
 3249  3261  3263     5 
 3249  3261  3264     5 
 3262  3261  3263     5 
 3262  3261  3264     5 
 3263  3261  3264     5 
 3261  3264  3265     5 
 3261  3264  3266     5 
 3261  3264  3267     5 
 3265  3264  3266     5 
 3265  3264  3267     5 
 3266  3264  3267     5 
 3264  3267  3268     5 
 3264  3267  3269     5 
 3264  3267  3270     5 
 3268  3267  3269     5 
 3268  3267  3270     5 
 3269  3267  3270     5 
 3267  3270  3271     5 
 3267  3270  3272     5 
 3267  3270  3273     5 
 3271  3270  3272     5 
 3271  3270  3273     5 
 3272  3270  3273     5 
 3270  3273  3274     5 
 3270  3273  3275     5 
 3270  3273  3276     5 
 3274  3273  3275     5 
 3274  3273  3276     5 
 3275  3273  3276     5 
 3273  3276  3277     5 
 3273  3276  3278     5 
 3273  3276  3279     5 
 3277  3276  3278     5 
 3277  3276  3279     5 
 3278  3276  3279     5 
 3276  3279  3280     5 
 3276  3279  3281     5 
 3280  3279  3281     5 
 3279  3281  3282     5 
 3279  3281  3283     5 
 3282  3281  3283     5 
 3281  3283  3284     5 
 3281  3283  3285     5 
 3281  3283  3286     5 
 3284  3283  3285     5 
 3284  3283  3286     5 
 3285  3283  3286     5 
 3283  3286  3287     5 
 3283  3286  3288     5 
 3283  3286  3289     5 
 3287  3286  3288     5 
 3287  3286  3289     5 
 3288  3286  3289     5 
 3286  3289  3290     5 
 3286  3289  3291     5 
 3286  3289  3292     5 
 3290  3289  3291     5 
 3290  3289  3292     5 
 3291  3289  3292     5 
 3289  3292  3293     5 
 3289  3292  3294     5 
 3289  3292  3295     5 
 3293  3292  3294     5 
 3293  3292  3295     5 
 3294  3292  3295     5 
 3292  3295  3296     5 
 3292  3295  3297     5 
 3292  3295  3298     5 
 3296  3295  3297     5 
 3296  3295  3298     5 
 3297  3295  3298     5 
 3295  3298  3299     5 
 3295  3298  3300     5 
 3295  3298  3301     5 
 3299  3298  3300     5 
 3299  3298  3301     5 
 3300  3298  3301     5 
 3298  3301  3302     5 
 3298  3301  3303     5 
 3298  3301  3304     5 
 3302  3301  3303     5 
 3302  3301  3304     5 
 3303  3301  3304     5 
 3301  3304  3305     5 
 3301  3304  3306     5 
 3301  3304  3307     5 
 3305  3304  3306     5 
 3305  3304  3307     5 
 3306  3304  3307     5 
 3258  3308  3309     5 
 3258  3308  3310     5 
 3258  3308  3311     5 
 3309  3308  3310     5 
 3309  3308  3311     5 
 3310  3308  3311     5 
 3308  3311  3312     5 
 3308  3311  3313     5 
 3308  3311  3314     5 
 3312  3311  3313     5 
 3312  3311  3314     5 
 3313  3311  3314     5 
 3311  3314  3315     5 
 3311  3314  3316     5 
 3311  3314  3317     5 
 3315  3314  3316     5 
 3315  3314  3317     5 
 3316  3314  3317     5 
 3314  3317  3318     5 
 3314  3317  3319     5 
 3314  3317  3320     5 
 3318  3317  3319     5 
 3318  3317  3320     5 
 3319  3317  3320     5 
 3317  3320  3321     5 
 3317  3320  3322     5 
 3317  3320  3323     5 
 3321  3320  3322     5 
 3321  3320  3323     5 
 3322  3320  3323     5 
 3320  3323  3324     5 
 3320  3323  3325     5 
 3320  3323  3326     5 
 3324  3323  3325     5 
 3324  3323  3326     5 
 3325  3323  3326     5 
 3323  3326  3327     5 
 3323  3326  3328     5 
 3323  3326  3329     5 
 3327  3326  3328     5 
 3327  3326  3329     5 
 3328  3326  3329     5 
 3326  3329  3330     5 
 3326  3329  3331     5 
 3326  3329  3332     5 
 3330  3329  3331     5 
 3330  3329  3332     5 
 3331  3329  3332     5 
 3329  3332  3333     5 
 3329  3332  3334     5 
 3329  3332  3335     5 
 3333  3332  3334     5 
 3333  3332  3335     5 
 3334  3332  3335     5 
 3332  3335  3336     5 
 3332  3335  3337     5 
 3332  3335  3338     5 
 3336  3335  3337     5 
 3336  3335  3338     5 
 3337  3335  3338     5 
 3335  3338  3339     5 
 3335  3338  3340     5 
 3335  3338  3341     5 
 3339  3338  3340     5 
 3339  3338  3341     5 
 3340  3338  3341     5 
 3338  3341  3342     5 
 3338  3341  3343     5 
 3338  3341  3344     5 
 3342  3341  3343     5 
 3342  3341  3344     5 
 3343  3341  3344     5 
 3341  3344  3345     5 
 3341  3344  3346     5 
 3341  3344  3347     5 
 3345  3344  3346     5 
 3345  3344  3347     5 
 3346  3344  3347     5 
 3344  3347  3348     5 
 3344  3347  3349     5 
 3344  3347  3350     5 
 3348  3347  3349     5 
 3348  3347  3350     5 
 3349  3347  3350     5 
 3352  3351  3355     5 
 3352  3351  3359     5 
 3352  3351  3363     5 
 3355  3351  3359     5 
 3355  3351  3363     5 
 3359  3351  3363     5 
 3351  3352  3353     5 
 3351  3352  3354     5 
 3351  3352  3367     5 
 3353  3352  3354     5 
 3353  3352  3367     5 
 3354  3352  3367     5 
 3351  3355  3356     5 
 3351  3355  3357     5 
 3351  3355  3358     5 
 3356  3355  3357     5 
 3356  3355  3358     5 
 3357  3355  3358     5 
 3351  3359  3360     5 
 3351  3359  3361     5 
 3351  3359  3362     5 
 3360  3359  3361     5 
 3360  3359  3362     5 
 3361  3359  3362     5 
 3351  3363  3364     5 
 3351  3363  3365     5 
 3351  3363  3366     5 
 3364  3363  3365     5 
 3364  3363  3366     5 
 3365  3363  3366     5 
 3352  3367  3368     5 
 3352  3367  3369     5 
 3352  3367  3373     5 
 3368  3367  3369     5 
 3368  3367  3373     5 
 3369  3367  3373     5 
 3371  3370  3372     5 
 3371  3370  3373     5 
 3371  3370  3374     5 
 3372  3370  3373     5 
 3372  3370  3374     5 
 3373  3370  3374     5 
 3367  3373  3370     5 
 3370  3374  3375     5 
 3374  3375  3376     5 
 3374  3375  3377     5 
 3374  3375  3378     5 
 3376  3375  3377     5 
 3376  3375  3378     5 
 3377  3375  3378     5 
 3375  3378  3379     5 
 3375  3378  3380     5 
 3375  3378  3386     5 
 3379  3378  3380     5 
 3379  3378  3386     5 
 3380  3378  3386     5 
 3378  3380  3381     5 
 3380  3381  3382     5 
 3380  3381  3383     5 
 3382  3381  3383     5 
 3381  3383  3384     5 
 3381  3383  3385     5 
 3381  3383  3395     5 
 3384  3383  3385     5 
 3384  3383  3395     5 
 3385  3383  3395     5 
 3378  3386  3387     5 
 3378  3386  3388     5 
 3378  3386  3389     5 
 3387  3386  3388     5 
 3387  3386  3389     5 
 3388  3386  3389     5 
 3386  3389  3390     5 
 3389  3390  3391     5 
 3389  3390  3392     5 
 3391  3390  3392     5 
 3390  3392  3393     5 
 3390  3392  3394     5 
 3390  3392  3442     5 
 3393  3392  3394     5 
 3393  3392  3442     5 
 3394  3392  3442     5 
 3383  3395  3396     5 
 3383  3395  3397     5 
 3383  3395  3398     5 
 3396  3395  3397     5 
 3396  3395  3398     5 
 3397  3395  3398     5 
 3395  3398  3399     5 
 3395  3398  3400     5 
 3395  3398  3401     5 
 3399  3398  3400     5 
 3399  3398  3401     5 
 3400  3398  3401     5 
 3398  3401  3402     5 
 3398  3401  3403     5 
 3398  3401  3404     5 
 3402  3401  3403     5 
 3402  3401  3404     5 
 3403  3401  3404     5 
 3401  3404  3405     5 
 3401  3404  3406     5 
 3401  3404  3407     5 
 3405  3404  3406     5 
 3405  3404  3407     5 
 3406  3404  3407     5 
 3404  3407  3408     5 
 3404  3407  3409     5 
 3404  3407  3410     5 
 3408  3407  3409     5 
 3408  3407  3410     5 
 3409  3407  3410     5 
 3407  3410  3411     5 
 3407  3410  3412     5 
 3407  3410  3413     5 
 3411  3410  3412     5 
 3411  3410  3413     5 
 3412  3410  3413     5 
 3410  3413  3414     5 
 3410  3413  3415     5 
 3414  3413  3415     5 
 3413  3415  3416     5 
 3413  3415  3417     5 
 3416  3415  3417     5 
 3415  3417  3418     5 
 3415  3417  3419     5 
 3415  3417  3420     5 
 3418  3417  3419     5 
 3418  3417  3420     5 
 3419  3417  3420     5 
 3417  3420  3421     5 
 3417  3420  3422     5 
 3417  3420  3423     5 
 3421  3420  3422     5 
 3421  3420  3423     5 
 3422  3420  3423     5 
 3420  3423  3424     5 
 3420  3423  3425     5 
 3420  3423  3426     5 
 3424  3423  3425     5 
 3424  3423  3426     5 
 3425  3423  3426     5 
 3423  3426  3427     5 
 3423  3426  3428     5 
 3423  3426  3429     5 
 3427  3426  3428     5 
 3427  3426  3429     5 
 3428  3426  3429     5 
 3426  3429  3430     5 
 3426  3429  3431     5 
 3426  3429  3432     5 
 3430  3429  3431     5 
 3430  3429  3432     5 
 3431  3429  3432     5 
 3429  3432  3433     5 
 3429  3432  3434     5 
 3429  3432  3435     5 
 3433  3432  3434     5 
 3433  3432  3435     5 
 3434  3432  3435     5 
 3432  3435  3436     5 
 3432  3435  3437     5 
 3432  3435  3438     5 
 3436  3435  3437     5 
 3436  3435  3438     5 
 3437  3435  3438     5 
 3435  3438  3439     5 
 3435  3438  3440     5 
 3435  3438  3441     5 
 3439  3438  3440     5 
 3439  3438  3441     5 
 3440  3438  3441     5 
 3392  3442  3443     5 
 3392  3442  3444     5 
 3392  3442  3445     5 
 3443  3442  3444     5 
 3443  3442  3445     5 
 3444  3442  3445     5 
 3442  3445  3446     5 
 3442  3445  3447     5 
 3442  3445  3448     5 
 3446  3445  3447     5 
 3446  3445  3448     5 
 3447  3445  3448     5 
 3445  3448  3449     5 
 3445  3448  3450     5 
 3445  3448  3451     5 
 3449  3448  3450     5 
 3449  3448  3451     5 
 3450  3448  3451     5 
 3448  3451  3452     5 
 3448  3451  3453     5 
 3448  3451  3454     5 
 3452  3451  3453     5 
 3452  3451  3454     5 
 3453  3451  3454     5 
 3451  3454  3455     5 
 3451  3454  3456     5 
 3451  3454  3457     5 
 3455  3454  3456     5 
 3455  3454  3457     5 
 3456  3454  3457     5 
 3454  3457  3458     5 
 3454  3457  3459     5 
 3454  3457  3460     5 
 3458  3457  3459     5 
 3458  3457  3460     5 
 3459  3457  3460     5 
 3457  3460  3461     5 
 3457  3460  3462     5 
 3457  3460  3463     5 
 3461  3460  3462     5 
 3461  3460  3463     5 
 3462  3460  3463     5 
 3460  3463  3464     5 
 3460  3463  3465     5 
 3460  3463  3466     5 
 3464  3463  3465     5 
 3464  3463  3466     5 
 3465  3463  3466     5 
 3463  3466  3467     5 
 3463  3466  3468     5 
 3463  3466  3469     5 
 3467  3466  3468     5 
 3467  3466  3469     5 
 3468  3466  3469     5 
 3466  3469  3470     5 
 3466  3469  3471     5 
 3466  3469  3472     5 
 3470  3469  3471     5 
 3470  3469  3472     5 
 3471  3469  3472     5 
 3469  3472  3473     5 
 3469  3472  3474     5 
 3469  3472  3475     5 
 3473  3472  3474     5 
 3473  3472  3475     5 
 3474  3472  3475     5 
 3472  3475  3476     5 
 3472  3475  3477     5 
 3472  3475  3478     5 
 3476  3475  3477     5 
 3476  3475  3478     5 
 3477  3475  3478     5 
 3475  3478  3479     5 
 3475  3478  3480     5 
 3475  3478  3481     5 
 3479  3478  3480     5 
 3479  3478  3481     5 
 3480  3478  3481     5 
 3478  3481  3482     5 
 3478  3481  3483     5 
 3478  3481  3484     5 
 3482  3481  3483     5 
 3482  3481  3484     5 
 3483  3481  3484     5 
 3486  3485  3489     5 
 3486  3485  3493     5 
 3486  3485  3497     5 
 3489  3485  3493     5 
 3489  3485  3497     5 
 3493  3485  3497     5 
 3485  3486  3487     5 
 3485  3486  3488     5 
 3485  3486  3501     5 
 3487  3486  3488     5 
 3487  3486  3501     5 
 3488  3486  3501     5 
 3485  3489  3490     5 
 3485  3489  3491     5 
 3485  3489  3492     5 
 3490  3489  3491     5 
 3490  3489  3492     5 
 3491  3489  3492     5 
 3485  3493  3494     5 
 3485  3493  3495     5 
 3485  3493  3496     5 
 3494  3493  3495     5 
 3494  3493  3496     5 
 3495  3493  3496     5 
 3485  3497  3498     5 
 3485  3497  3499     5 
 3485  3497  3500     5 
 3498  3497  3499     5 
 3498  3497  3500     5 
 3499  3497  3500     5 
 3486  3501  3502     5 
 3486  3501  3503     5 
 3486  3501  3507     5 
 3502  3501  3503     5 
 3502  3501  3507     5 
 3503  3501  3507     5 
 3505  3504  3506     5 
 3505  3504  3507     5 
 3505  3504  3508     5 
 3506  3504  3507     5 
 3506  3504  3508     5 
 3507  3504  3508     5 
 3501  3507  3504     5 
 3504  3508  3509     5 
 3508  3509  3510     5 
 3508  3509  3511     5 
 3508  3509  3512     5 
 3510  3509  3511     5 
 3510  3509  3512     5 
 3511  3509  3512     5 
 3509  3512  3513     5 
 3509  3512  3514     5 
 3509  3512  3520     5 
 3513  3512  3514     5 
 3513  3512  3520     5 
 3514  3512  3520     5 
 3512  3514  3515     5 
 3514  3515  3516     5 
 3514  3515  3517     5 
 3516  3515  3517     5 
 3515  3517  3518     5 
 3515  3517  3519     5 
 3515  3517  3529     5 
 3518  3517  3519     5 
 3518  3517  3529     5 
 3519  3517  3529     5 
 3512  3520  3521     5 
 3512  3520  3522     5 
 3512  3520  3523     5 
 3521  3520  3522     5 
 3521  3520  3523     5 
 3522  3520  3523     5 
 3520  3523  3524     5 
 3523  3524  3525     5 
 3523  3524  3526     5 
 3525  3524  3526     5 
 3524  3526  3527     5 
 3524  3526  3528     5 
 3524  3526  3576     5 
 3527  3526  3528     5 
 3527  3526  3576     5 
 3528  3526  3576     5 
 3517  3529  3530     5 
 3517  3529  3531     5 
 3517  3529  3532     5 
 3530  3529  3531     5 
 3530  3529  3532     5 
 3531  3529  3532     5 
 3529  3532  3533     5 
 3529  3532  3534     5 
 3529  3532  3535     5 
 3533  3532  3534     5 
 3533  3532  3535     5 
 3534  3532  3535     5 
 3532  3535  3536     5 
 3532  3535  3537     5 
 3532  3535  3538     5 
 3536  3535  3537     5 
 3536  3535  3538     5 
 3537  3535  3538     5 
 3535  3538  3539     5 
 3535  3538  3540     5 
 3535  3538  3541     5 
 3539  3538  3540     5 
 3539  3538  3541     5 
 3540  3538  3541     5 
 3538  3541  3542     5 
 3538  3541  3543     5 
 3538  3541  3544     5 
 3542  3541  3543     5 
 3542  3541  3544     5 
 3543  3541  3544     5 
 3541  3544  3545     5 
 3541  3544  3546     5 
 3541  3544  3547     5 
 3545  3544  3546     5 
 3545  3544  3547     5 
 3546  3544  3547     5 
 3544  3547  3548     5 
 3544  3547  3549     5 
 3548  3547  3549     5 
 3547  3549  3550     5 
 3547  3549  3551     5 
 3550  3549  3551     5 
 3549  3551  3552     5 
 3549  3551  3553     5 
 3549  3551  3554     5 
 3552  3551  3553     5 
 3552  3551  3554     5 
 3553  3551  3554     5 
 3551  3554  3555     5 
 3551  3554  3556     5 
 3551  3554  3557     5 
 3555  3554  3556     5 
 3555  3554  3557     5 
 3556  3554  3557     5 
 3554  3557  3558     5 
 3554  3557  3559     5 
 3554  3557  3560     5 
 3558  3557  3559     5 
 3558  3557  3560     5 
 3559  3557  3560     5 
 3557  3560  3561     5 
 3557  3560  3562     5 
 3557  3560  3563     5 
 3561  3560  3562     5 
 3561  3560  3563     5 
 3562  3560  3563     5 
 3560  3563  3564     5 
 3560  3563  3565     5 
 3560  3563  3566     5 
 3564  3563  3565     5 
 3564  3563  3566     5 
 3565  3563  3566     5 
 3563  3566  3567     5 
 3563  3566  3568     5 
 3563  3566  3569     5 
 3567  3566  3568     5 
 3567  3566  3569     5 
 3568  3566  3569     5 
 3566  3569  3570     5 
 3566  3569  3571     5 
 3566  3569  3572     5 
 3570  3569  3571     5 
 3570  3569  3572     5 
 3571  3569  3572     5 
 3569  3572  3573     5 
 3569  3572  3574     5 
 3569  3572  3575     5 
 3573  3572  3574     5 
 3573  3572  3575     5 
 3574  3572  3575     5 
 3526  3576  3577     5 
 3526  3576  3578     5 
 3526  3576  3579     5 
 3577  3576  3578     5 
 3577  3576  3579     5 
 3578  3576  3579     5 
 3576  3579  3580     5 
 3576  3579  3581     5 
 3576  3579  3582     5 
 3580  3579  3581     5 
 3580  3579  3582     5 
 3581  3579  3582     5 
 3579  3582  3583     5 
 3579  3582  3584     5 
 3579  3582  3585     5 
 3583  3582  3584     5 
 3583  3582  3585     5 
 3584  3582  3585     5 
 3582  3585  3586     5 
 3582  3585  3587     5 
 3582  3585  3588     5 
 3586  3585  3587     5 
 3586  3585  3588     5 
 3587  3585  3588     5 
 3585  3588  3589     5 
 3585  3588  3590     5 
 3585  3588  3591     5 
 3589  3588  3590     5 
 3589  3588  3591     5 
 3590  3588  3591     5 
 3588  3591  3592     5 
 3588  3591  3593     5 
 3588  3591  3594     5 
 3592  3591  3593     5 
 3592  3591  3594     5 
 3593  3591  3594     5 
 3591  3594  3595     5 
 3591  3594  3596     5 
 3591  3594  3597     5 
 3595  3594  3596     5 
 3595  3594  3597     5 
 3596  3594  3597     5 
 3594  3597  3598     5 
 3594  3597  3599     5 
 3594  3597  3600     5 
 3598  3597  3599     5 
 3598  3597  3600     5 
 3599  3597  3600     5 
 3597  3600  3601     5 
 3597  3600  3602     5 
 3597  3600  3603     5 
 3601  3600  3602     5 
 3601  3600  3603     5 
 3602  3600  3603     5 
 3600  3603  3604     5 
 3600  3603  3605     5 
 3600  3603  3606     5 
 3604  3603  3605     5 
 3604  3603  3606     5 
 3605  3603  3606     5 
 3603  3606  3607     5 
 3603  3606  3608     5 
 3603  3606  3609     5 
 3607  3606  3608     5 
 3607  3606  3609     5 
 3608  3606  3609     5 
 3606  3609  3610     5 
 3606  3609  3611     5 
 3606  3609  3612     5 
 3610  3609  3611     5 
 3610  3609  3612     5 
 3611  3609  3612     5 
 3609  3612  3613     5 
 3609  3612  3614     5 
 3609  3612  3615     5 
 3613  3612  3614     5 
 3613  3612  3615     5 
 3614  3612  3615     5 
 3612  3615  3616     5 
 3612  3615  3617     5 
 3612  3615  3618     5 
 3616  3615  3617     5 
 3616  3615  3618     5 
 3617  3615  3618     5 
 3620  3619  3623     5 
 3620  3619  3627     5 
 3620  3619  3631     5 
 3623  3619  3627     5 
 3623  3619  3631     5 
 3627  3619  3631     5 
 3619  3620  3621     5 
 3619  3620  3622     5 
 3619  3620  3635     5 
 3621  3620  3622     5 
 3621  3620  3635     5 
 3622  3620  3635     5 
 3619  3623  3624     5 
 3619  3623  3625     5 
 3619  3623  3626     5 
 3624  3623  3625     5 
 3624  3623  3626     5 
 3625  3623  3626     5 
 3619  3627  3628     5 
 3619  3627  3629     5 
 3619  3627  3630     5 
 3628  3627  3629     5 
 3628  3627  3630     5 
 3629  3627  3630     5 
 3619  3631  3632     5 
 3619  3631  3633     5 
 3619  3631  3634     5 
 3632  3631  3633     5 
 3632  3631  3634     5 
 3633  3631  3634     5 
 3620  3635  3636     5 
 3620  3635  3637     5 
 3620  3635  3641     5 
 3636  3635  3637     5 
 3636  3635  3641     5 
 3637  3635  3641     5 
 3639  3638  3640     5 
 3639  3638  3641     5 
 3639  3638  3642     5 
 3640  3638  3641     5 
 3640  3638  3642     5 
 3641  3638  3642     5 
 3635  3641  3638     5 
 3638  3642  3643     5 
 3642  3643  3644     5 
 3642  3643  3645     5 
 3642  3643  3646     5 
 3644  3643  3645     5 
 3644  3643  3646     5 
 3645  3643  3646     5 
 3643  3646  3647     5 
 3643  3646  3648     5 
 3643  3646  3654     5 
 3647  3646  3648     5 
 3647  3646  3654     5 
 3648  3646  3654     5 
 3646  3648  3649     5 
 3648  3649  3650     5 
 3648  3649  3651     5 
 3650  3649  3651     5 
 3649  3651  3652     5 
 3649  3651  3653     5 
 3649  3651  3663     5 
 3652  3651  3653     5 
 3652  3651  3663     5 
 3653  3651  3663     5 
 3646  3654  3655     5 
 3646  3654  3656     5 
 3646  3654  3657     5 
 3655  3654  3656     5 
 3655  3654  3657     5 
 3656  3654  3657     5 
 3654  3657  3658     5 
 3657  3658  3659     5 
 3657  3658  3660     5 
 3659  3658  3660     5 
 3658  3660  3661     5 
 3658  3660  3662     5 
 3658  3660  3710     5 
 3661  3660  3662     5 
 3661  3660  3710     5 
 3662  3660  3710     5 
 3651  3663  3664     5 
 3651  3663  3665     5 
 3651  3663  3666     5 
 3664  3663  3665     5 
 3664  3663  3666     5 
 3665  3663  3666     5 
 3663  3666  3667     5 
 3663  3666  3668     5 
 3663  3666  3669     5 
 3667  3666  3668     5 
 3667  3666  3669     5 
 3668  3666  3669     5 
 3666  3669  3670     5 
 3666  3669  3671     5 
 3666  3669  3672     5 
 3670  3669  3671     5 
 3670  3669  3672     5 
 3671  3669  3672     5 
 3669  3672  3673     5 
 3669  3672  3674     5 
 3669  3672  3675     5 
 3673  3672  3674     5 
 3673  3672  3675     5 
 3674  3672  3675     5 
 3672  3675  3676     5 
 3672  3675  3677     5 
 3672  3675  3678     5 
 3676  3675  3677     5 
 3676  3675  3678     5 
 3677  3675  3678     5 
 3675  3678  3679     5 
 3675  3678  3680     5 
 3675  3678  3681     5 
 3679  3678  3680     5 
 3679  3678  3681     5 
 3680  3678  3681     5 
 3678  3681  3682     5 
 3678  3681  3683     5 
 3682  3681  3683     5 
 3681  3683  3684     5 
 3681  3683  3685     5 
 3684  3683  3685     5 
 3683  3685  3686     5 
 3683  3685  3687     5 
 3683  3685  3688     5 
 3686  3685  3687     5 
 3686  3685  3688     5 
 3687  3685  3688     5 
 3685  3688  3689     5 
 3685  3688  3690     5 
 3685  3688  3691     5 
 3689  3688  3690     5 
 3689  3688  3691     5 
 3690  3688  3691     5 
 3688  3691  3692     5 
 3688  3691  3693     5 
 3688  3691  3694     5 
 3692  3691  3693     5 
 3692  3691  3694     5 
 3693  3691  3694     5 
 3691  3694  3695     5 
 3691  3694  3696     5 
 3691  3694  3697     5 
 3695  3694  3696     5 
 3695  3694  3697     5 
 3696  3694  3697     5 
 3694  3697  3698     5 
 3694  3697  3699     5 
 3694  3697  3700     5 
 3698  3697  3699     5 
 3698  3697  3700     5 
 3699  3697  3700     5 
 3697  3700  3701     5 
 3697  3700  3702     5 
 3697  3700  3703     5 
 3701  3700  3702     5 
 3701  3700  3703     5 
 3702  3700  3703     5 
 3700  3703  3704     5 
 3700  3703  3705     5 
 3700  3703  3706     5 
 3704  3703  3705     5 
 3704  3703  3706     5 
 3705  3703  3706     5 
 3703  3706  3707     5 
 3703  3706  3708     5 
 3703  3706  3709     5 
 3707  3706  3708     5 
 3707  3706  3709     5 
 3708  3706  3709     5 
 3660  3710  3711     5 
 3660  3710  3712     5 
 3660  3710  3713     5 
 3711  3710  3712     5 
 3711  3710  3713     5 
 3712  3710  3713     5 
 3710  3713  3714     5 
 3710  3713  3715     5 
 3710  3713  3716     5 
 3714  3713  3715     5 
 3714  3713  3716     5 
 3715  3713  3716     5 
 3713  3716  3717     5 
 3713  3716  3718     5 
 3713  3716  3719     5 
 3717  3716  3718     5 
 3717  3716  3719     5 
 3718  3716  3719     5 
 3716  3719  3720     5 
 3716  3719  3721     5 
 3716  3719  3722     5 
 3720  3719  3721     5 
 3720  3719  3722     5 
 3721  3719  3722     5 
 3719  3722  3723     5 
 3719  3722  3724     5 
 3719  3722  3725     5 
 3723  3722  3724     5 
 3723  3722  3725     5 
 3724  3722  3725     5 
 3722  3725  3726     5 
 3722  3725  3727     5 
 3722  3725  3728     5 
 3726  3725  3727     5 
 3726  3725  3728     5 
 3727  3725  3728     5 
 3725  3728  3729     5 
 3725  3728  3730     5 
 3725  3728  3731     5 
 3729  3728  3730     5 
 3729  3728  3731     5 
 3730  3728  3731     5 
 3728  3731  3732     5 
 3728  3731  3733     5 
 3728  3731  3734     5 
 3732  3731  3733     5 
 3732  3731  3734     5 
 3733  3731  3734     5 
 3731  3734  3735     5 
 3731  3734  3736     5 
 3731  3734  3737     5 
 3735  3734  3736     5 
 3735  3734  3737     5 
 3736  3734  3737     5 
 3734  3737  3738     5 
 3734  3737  3739     5 
 3734  3737  3740     5 
 3738  3737  3739     5 
 3738  3737  3740     5 
 3739  3737  3740     5 
 3737  3740  3741     5 
 3737  3740  3742     5 
 3737  3740  3743     5 
 3741  3740  3742     5 
 3741  3740  3743     5 
 3742  3740  3743     5 
 3740  3743  3744     5 
 3740  3743  3745     5 
 3740  3743  3746     5 
 3744  3743  3745     5 
 3744  3743  3746     5 
 3745  3743  3746     5 
 3743  3746  3747     5 
 3743  3746  3748     5 
 3743  3746  3749     5 
 3747  3746  3748     5 
 3747  3746  3749     5 
 3748  3746  3749     5 
 3746  3749  3750     5 
 3746  3749  3751     5 
 3746  3749  3752     5 
 3750  3749  3751     5 
 3750  3749  3752     5 
 3751  3749  3752     5 
 3754  3753  3757     5 
 3754  3753  3761     5 
 3754  3753  3765     5 
 3757  3753  3761     5 
 3757  3753  3765     5 
 3761  3753  3765     5 
 3753  3754  3755     5 
 3753  3754  3756     5 
 3753  3754  3769     5 
 3755  3754  3756     5 
 3755  3754  3769     5 
 3756  3754  3769     5 
 3753  3757  3758     5 
 3753  3757  3759     5 
 3753  3757  3760     5 
 3758  3757  3759     5 
 3758  3757  3760     5 
 3759  3757  3760     5 
 3753  3761  3762     5 
 3753  3761  3763     5 
 3753  3761  3764     5 
 3762  3761  3763     5 
 3762  3761  3764     5 
 3763  3761  3764     5 
 3753  3765  3766     5 
 3753  3765  3767     5 
 3753  3765  3768     5 
 3766  3765  3767     5 
 3766  3765  3768     5 
 3767  3765  3768     5 
 3754  3769  3770     5 
 3754  3769  3771     5 
 3754  3769  3775     5 
 3770  3769  3771     5 
 3770  3769  3775     5 
 3771  3769  3775     5 
 3773  3772  3774     5 
 3773  3772  3775     5 
 3773  3772  3776     5 
 3774  3772  3775     5 
 3774  3772  3776     5 
 3775  3772  3776     5 
 3769  3775  3772     5 
 3772  3776  3777     5 
 3776  3777  3778     5 
 3776  3777  3779     5 
 3776  3777  3780     5 
 3778  3777  3779     5 
 3778  3777  3780     5 
 3779  3777  3780     5 
 3777  3780  3781     5 
 3777  3780  3782     5 
 3777  3780  3788     5 
 3781  3780  3782     5 
 3781  3780  3788     5 
 3782  3780  3788     5 
 3780  3782  3783     5 
 3782  3783  3784     5 
 3782  3783  3785     5 
 3784  3783  3785     5 
 3783  3785  3786     5 
 3783  3785  3787     5 
 3783  3785  3797     5 
 3786  3785  3787     5 
 3786  3785  3797     5 
 3787  3785  3797     5 
 3780  3788  3789     5 
 3780  3788  3790     5 
 3780  3788  3791     5 
 3789  3788  3790     5 
 3789  3788  3791     5 
 3790  3788  3791     5 
 3788  3791  3792     5 
 3791  3792  3793     5 
 3791  3792  3794     5 
 3793  3792  3794     5 
 3792  3794  3795     5 
 3792  3794  3796     5 
 3792  3794  3844     5 
 3795  3794  3796     5 
 3795  3794  3844     5 
 3796  3794  3844     5 
 3785  3797  3798     5 
 3785  3797  3799     5 
 3785  3797  3800     5 
 3798  3797  3799     5 
 3798  3797  3800     5 
 3799  3797  3800     5 
 3797  3800  3801     5 
 3797  3800  3802     5 
 3797  3800  3803     5 
 3801  3800  3802     5 
 3801  3800  3803     5 
 3802  3800  3803     5 
 3800  3803  3804     5 
 3800  3803  3805     5 
 3800  3803  3806     5 
 3804  3803  3805     5 
 3804  3803  3806     5 
 3805  3803  3806     5 
 3803  3806  3807     5 
 3803  3806  3808     5 
 3803  3806  3809     5 
 3807  3806  3808     5 
 3807  3806  3809     5 
 3808  3806  3809     5 
 3806  3809  3810     5 
 3806  3809  3811     5 
 3806  3809  3812     5 
 3810  3809  3811     5 
 3810  3809  3812     5 
 3811  3809  3812     5 
 3809  3812  3813     5 
 3809  3812  3814     5 
 3809  3812  3815     5 
 3813  3812  3814     5 
 3813  3812  3815     5 
 3814  3812  3815     5 
 3812  3815  3816     5 
 3812  3815  3817     5 
 3816  3815  3817     5 
 3815  3817  3818     5 
 3815  3817  3819     5 
 3818  3817  3819     5 
 3817  3819  3820     5 
 3817  3819  3821     5 
 3817  3819  3822     5 
 3820  3819  3821     5 
 3820  3819  3822     5 
 3821  3819  3822     5 
 3819  3822  3823     5 
 3819  3822  3824     5 
 3819  3822  3825     5 
 3823  3822  3824     5 
 3823  3822  3825     5 
 3824  3822  3825     5 
 3822  3825  3826     5 
 3822  3825  3827     5 
 3822  3825  3828     5 
 3826  3825  3827     5 
 3826  3825  3828     5 
 3827  3825  3828     5 
 3825  3828  3829     5 
 3825  3828  3830     5 
 3825  3828  3831     5 
 3829  3828  3830     5 
 3829  3828  3831     5 
 3830  3828  3831     5 
 3828  3831  3832     5 
 3828  3831  3833     5 
 3828  3831  3834     5 
 3832  3831  3833     5 
 3832  3831  3834     5 
 3833  3831  3834     5 
 3831  3834  3835     5 
 3831  3834  3836     5 
 3831  3834  3837     5 
 3835  3834  3836     5 
 3835  3834  3837     5 
 3836  3834  3837     5 
 3834  3837  3838     5 
 3834  3837  3839     5 
 3834  3837  3840     5 
 3838  3837  3839     5 
 3838  3837  3840     5 
 3839  3837  3840     5 
 3837  3840  3841     5 
 3837  3840  3842     5 
 3837  3840  3843     5 
 3841  3840  3842     5 
 3841  3840  3843     5 
 3842  3840  3843     5 
 3794  3844  3845     5 
 3794  3844  3846     5 
 3794  3844  3847     5 
 3845  3844  3846     5 
 3845  3844  3847     5 
 3846  3844  3847     5 
 3844  3847  3848     5 
 3844  3847  3849     5 
 3844  3847  3850     5 
 3848  3847  3849     5 
 3848  3847  3850     5 
 3849  3847  3850     5 
 3847  3850  3851     5 
 3847  3850  3852     5 
 3847  3850  3853     5 
 3851  3850  3852     5 
 3851  3850  3853     5 
 3852  3850  3853     5 
 3850  3853  3854     5 
 3850  3853  3855     5 
 3850  3853  3856     5 
 3854  3853  3855     5 
 3854  3853  3856     5 
 3855  3853  3856     5 
 3853  3856  3857     5 
 3853  3856  3858     5 
 3853  3856  3859     5 
 3857  3856  3858     5 
 3857  3856  3859     5 
 3858  3856  3859     5 
 3856  3859  3860     5 
 3856  3859  3861     5 
 3856  3859  3862     5 
 3860  3859  3861     5 
 3860  3859  3862     5 
 3861  3859  3862     5 
 3859  3862  3863     5 
 3859  3862  3864     5 
 3859  3862  3865     5 
 3863  3862  3864     5 
 3863  3862  3865     5 
 3864  3862  3865     5 
 3862  3865  3866     5 
 3862  3865  3867     5 
 3862  3865  3868     5 
 3866  3865  3867     5 
 3866  3865  3868     5 
 3867  3865  3868     5 
 3865  3868  3869     5 
 3865  3868  3870     5 
 3865  3868  3871     5 
 3869  3868  3870     5 
 3869  3868  3871     5 
 3870  3868  3871     5 
 3868  3871  3872     5 
 3868  3871  3873     5 
 3868  3871  3874     5 
 3872  3871  3873     5 
 3872  3871  3874     5 
 3873  3871  3874     5 
 3871  3874  3875     5 
 3871  3874  3876     5 
 3871  3874  3877     5 
 3875  3874  3876     5 
 3875  3874  3877     5 
 3876  3874  3877     5 
 3874  3877  3878     5 
 3874  3877  3879     5 
 3874  3877  3880     5 
 3878  3877  3879     5 
 3878  3877  3880     5 
 3879  3877  3880     5 
 3877  3880  3881     5 
 3877  3880  3882     5 
 3877  3880  3883     5 
 3881  3880  3882     5 
 3881  3880  3883     5 
 3882  3880  3883     5 
 3880  3883  3884     5 
 3880  3883  3885     5 
 3880  3883  3886     5 
 3884  3883  3885     5 
 3884  3883  3886     5 
 3885  3883  3886     5 
 3888  3887  3891     5 
 3888  3887  3895     5 
 3888  3887  3899     5 
 3891  3887  3895     5 
 3891  3887  3899     5 
 3895  3887  3899     5 
 3887  3888  3889     5 
 3887  3888  3890     5 
 3887  3888  3903     5 
 3889  3888  3890     5 
 3889  3888  3903     5 
 3890  3888  3903     5 
 3887  3891  3892     5 
 3887  3891  3893     5 
 3887  3891  3894     5 
 3892  3891  3893     5 
 3892  3891  3894     5 
 3893  3891  3894     5 
 3887  3895  3896     5 
 3887  3895  3897     5 
 3887  3895  3898     5 
 3896  3895  3897     5 
 3896  3895  3898     5 
 3897  3895  3898     5 
 3887  3899  3900     5 
 3887  3899  3901     5 
 3887  3899  3902     5 
 3900  3899  3901     5 
 3900  3899  3902     5 
 3901  3899  3902     5 
 3888  3903  3904     5 
 3888  3903  3905     5 
 3888  3903  3909     5 
 3904  3903  3905     5 
 3904  3903  3909     5 
 3905  3903  3909     5 
 3907  3906  3908     5 
 3907  3906  3909     5 
 3907  3906  3910     5 
 3908  3906  3909     5 
 3908  3906  3910     5 
 3909  3906  3910     5 
 3903  3909  3906     5 
 3906  3910  3911     5 
 3910  3911  3912     5 
 3910  3911  3913     5 
 3910  3911  3914     5 
 3912  3911  3913     5 
 3912  3911  3914     5 
 3913  3911  3914     5 
 3911  3914  3915     5 
 3911  3914  3916     5 
 3911  3914  3922     5 
 3915  3914  3916     5 
 3915  3914  3922     5 
 3916  3914  3922     5 
 3914  3916  3917     5 
 3916  3917  3918     5 
 3916  3917  3919     5 
 3918  3917  3919     5 
 3917  3919  3920     5 
 3917  3919  3921     5 
 3917  3919  3931     5 
 3920  3919  3921     5 
 3920  3919  3931     5 
 3921  3919  3931     5 
 3914  3922  3923     5 
 3914  3922  3924     5 
 3914  3922  3925     5 
 3923  3922  3924     5 
 3923  3922  3925     5 
 3924  3922  3925     5 
 3922  3925  3926     5 
 3925  3926  3927     5 
 3925  3926  3928     5 
 3927  3926  3928     5 
 3926  3928  3929     5 
 3926  3928  3930     5 
 3926  3928  3978     5 
 3929  3928  3930     5 
 3929  3928  3978     5 
 3930  3928  3978     5 
 3919  3931  3932     5 
 3919  3931  3933     5 
 3919  3931  3934     5 
 3932  3931  3933     5 
 3932  3931  3934     5 
 3933  3931  3934     5 
 3931  3934  3935     5 
 3931  3934  3936     5 
 3931  3934  3937     5 
 3935  3934  3936     5 
 3935  3934  3937     5 
 3936  3934  3937     5 
 3934  3937  3938     5 
 3934  3937  3939     5 
 3934  3937  3940     5 
 3938  3937  3939     5 
 3938  3937  3940     5 
 3939  3937  3940     5 
 3937  3940  3941     5 
 3937  3940  3942     5 
 3937  3940  3943     5 
 3941  3940  3942     5 
 3941  3940  3943     5 
 3942  3940  3943     5 
 3940  3943  3944     5 
 3940  3943  3945     5 
 3940  3943  3946     5 
 3944  3943  3945     5 
 3944  3943  3946     5 
 3945  3943  3946     5 
 3943  3946  3947     5 
 3943  3946  3948     5 
 3943  3946  3949     5 
 3947  3946  3948     5 
 3947  3946  3949     5 
 3948  3946  3949     5 
 3946  3949  3950     5 
 3946  3949  3951     5 
 3950  3949  3951     5 
 3949  3951  3952     5 
 3949  3951  3953     5 
 3952  3951  3953     5 
 3951  3953  3954     5 
 3951  3953  3955     5 
 3951  3953  3956     5 
 3954  3953  3955     5 
 3954  3953  3956     5 
 3955  3953  3956     5 
 3953  3956  3957     5 
 3953  3956  3958     5 
 3953  3956  3959     5 
 3957  3956  3958     5 
 3957  3956  3959     5 
 3958  3956  3959     5 
 3956  3959  3960     5 
 3956  3959  3961     5 
 3956  3959  3962     5 
 3960  3959  3961     5 
 3960  3959  3962     5 
 3961  3959  3962     5 
 3959  3962  3963     5 
 3959  3962  3964     5 
 3959  3962  3965     5 
 3963  3962  3964     5 
 3963  3962  3965     5 
 3964  3962  3965     5 
 3962  3965  3966     5 
 3962  3965  3967     5 
 3962  3965  3968     5 
 3966  3965  3967     5 
 3966  3965  3968     5 
 3967  3965  3968     5 
 3965  3968  3969     5 
 3965  3968  3970     5 
 3965  3968  3971     5 
 3969  3968  3970     5 
 3969  3968  3971     5 
 3970  3968  3971     5 
 3968  3971  3972     5 
 3968  3971  3973     5 
 3968  3971  3974     5 
 3972  3971  3973     5 
 3972  3971  3974     5 
 3973  3971  3974     5 
 3971  3974  3975     5 
 3971  3974  3976     5 
 3971  3974  3977     5 
 3975  3974  3976     5 
 3975  3974  3977     5 
 3976  3974  3977     5 
 3928  3978  3979     5 
 3928  3978  3980     5 
 3928  3978  3981     5 
 3979  3978  3980     5 
 3979  3978  3981     5 
 3980  3978  3981     5 
 3978  3981  3982     5 
 3978  3981  3983     5 
 3978  3981  3984     5 
 3982  3981  3983     5 
 3982  3981  3984     5 
 3983  3981  3984     5 
 3981  3984  3985     5 
 3981  3984  3986     5 
 3981  3984  3987     5 
 3985  3984  3986     5 
 3985  3984  3987     5 
 3986  3984  3987     5 
 3984  3987  3988     5 
 3984  3987  3989     5 
 3984  3987  3990     5 
 3988  3987  3989     5 
 3988  3987  3990     5 
 3989  3987  3990     5 
 3987  3990  3991     5 
 3987  3990  3992     5 
 3987  3990  3993     5 
 3991  3990  3992     5 
 3991  3990  3993     5 
 3992  3990  3993     5 
 3990  3993  3994     5 
 3990  3993  3995     5 
 3990  3993  3996     5 
 3994  3993  3995     5 
 3994  3993  3996     5 
 3995  3993  3996     5 
 3993  3996  3997     5 
 3993  3996  3998     5 
 3993  3996  3999     5 
 3997  3996  3998     5 
 3997  3996  3999     5 
 3998  3996  3999     5 
 3996  3999  4000     5 
 3996  3999  4001     5 
 3996  3999  4002     5 
 4000  3999  4001     5 
 4000  3999  4002     5 
 4001  3999  4002     5 
 3999  4002  4003     5 
 3999  4002  4004     5 
 3999  4002  4005     5 
 4003  4002  4004     5 
 4003  4002  4005     5 
 4004  4002  4005     5 
 4002  4005  4006     5 
 4002  4005  4007     5 
 4002  4005  4008     5 
 4006  4005  4007     5 
 4006  4005  4008     5 
 4007  4005  4008     5 
 4005  4008  4009     5 
 4005  4008  4010     5 
 4005  4008  4011     5 
 4009  4008  4010     5 
 4009  4008  4011     5 
 4010  4008  4011     5 
 4008  4011  4012     5 
 4008  4011  4013     5 
 4008  4011  4014     5 
 4012  4011  4013     5 
 4012  4011  4014     5 
 4013  4011  4014     5 
 4011  4014  4015     5 
 4011  4014  4016     5 
 4011  4014  4017     5 
 4015  4014  4016     5 
 4015  4014  4017     5 
 4016  4014  4017     5 
 4014  4017  4018     5 
 4014  4017  4019     5 
 4014  4017  4020     5 
 4018  4017  4019     5 
 4018  4017  4020     5 
 4019  4017  4020     5 
 4022  4021  4025     5 
 4022  4021  4029     5 
 4022  4021  4033     5 
 4025  4021  4029     5 
 4025  4021  4033     5 
 4029  4021  4033     5 
 4021  4022  4023     5 
 4021  4022  4024     5 
 4021  4022  4037     5 
 4023  4022  4024     5 
 4023  4022  4037     5 
 4024  4022  4037     5 
 4021  4025  4026     5 
 4021  4025  4027     5 
 4021  4025  4028     5 
 4026  4025  4027     5 
 4026  4025  4028     5 
 4027  4025  4028     5 
 4021  4029  4030     5 
 4021  4029  4031     5 
 4021  4029  4032     5 
 4030  4029  4031     5 
 4030  4029  4032     5 
 4031  4029  4032     5 
 4021  4033  4034     5 
 4021  4033  4035     5 
 4021  4033  4036     5 
 4034  4033  4035     5 
 4034  4033  4036     5 
 4035  4033  4036     5 
 4022  4037  4038     5 
 4022  4037  4039     5 
 4022  4037  4043     5 
 4038  4037  4039     5 
 4038  4037  4043     5 
 4039  4037  4043     5 
 4041  4040  4042     5 
 4041  4040  4043     5 
 4041  4040  4044     5 
 4042  4040  4043     5 
 4042  4040  4044     5 
 4043  4040  4044     5 
 4037  4043  4040     5 
 4040  4044  4045     5 
 4044  4045  4046     5 
 4044  4045  4047     5 
 4044  4045  4048     5 
 4046  4045  4047     5 
 4046  4045  4048     5 
 4047  4045  4048     5 
 4045  4048  4049     5 
 4045  4048  4050     5 
 4045  4048  4056     5 
 4049  4048  4050     5 
 4049  4048  4056     5 
 4050  4048  4056     5 
 4048  4050  4051     5 
 4050  4051  4052     5 
 4050  4051  4053     5 
 4052  4051  4053     5 
 4051  4053  4054     5 
 4051  4053  4055     5 
 4051  4053  4065     5 
 4054  4053  4055     5 
 4054  4053  4065     5 
 4055  4053  4065     5 
 4048  4056  4057     5 
 4048  4056  4058     5 
 4048  4056  4059     5 
 4057  4056  4058     5 
 4057  4056  4059     5 
 4058  4056  4059     5 
 4056  4059  4060     5 
 4059  4060  4061     5 
 4059  4060  4062     5 
 4061  4060  4062     5 
 4060  4062  4063     5 
 4060  4062  4064     5 
 4060  4062  4112     5 
 4063  4062  4064     5 
 4063  4062  4112     5 
 4064  4062  4112     5 
 4053  4065  4066     5 
 4053  4065  4067     5 
 4053  4065  4068     5 
 4066  4065  4067     5 
 4066  4065  4068     5 
 4067  4065  4068     5 
 4065  4068  4069     5 
 4065  4068  4070     5 
 4065  4068  4071     5 
 4069  4068  4070     5 
 4069  4068  4071     5 
 4070  4068  4071     5 
 4068  4071  4072     5 
 4068  4071  4073     5 
 4068  4071  4074     5 
 4072  4071  4073     5 
 4072  4071  4074     5 
 4073  4071  4074     5 
 4071  4074  4075     5 
 4071  4074  4076     5 
 4071  4074  4077     5 
 4075  4074  4076     5 
 4075  4074  4077     5 
 4076  4074  4077     5 
 4074  4077  4078     5 
 4074  4077  4079     5 
 4074  4077  4080     5 
 4078  4077  4079     5 
 4078  4077  4080     5 
 4079  4077  4080     5 
 4077  4080  4081     5 
 4077  4080  4082     5 
 4077  4080  4083     5 
 4081  4080  4082     5 
 4081  4080  4083     5 
 4082  4080  4083     5 
 4080  4083  4084     5 
 4080  4083  4085     5 
 4084  4083  4085     5 
 4083  4085  4086     5 
 4083  4085  4087     5 
 4086  4085  4087     5 
 4085  4087  4088     5 
 4085  4087  4089     5 
 4085  4087  4090     5 
 4088  4087  4089     5 
 4088  4087  4090     5 
 4089  4087  4090     5 
 4087  4090  4091     5 
 4087  4090  4092     5 
 4087  4090  4093     5 
 4091  4090  4092     5 
 4091  4090  4093     5 
 4092  4090  4093     5 
 4090  4093  4094     5 
 4090  4093  4095     5 
 4090  4093  4096     5 
 4094  4093  4095     5 
 4094  4093  4096     5 
 4095  4093  4096     5 
 4093  4096  4097     5 
 4093  4096  4098     5 
 4093  4096  4099     5 
 4097  4096  4098     5 
 4097  4096  4099     5 
 4098  4096  4099     5 
 4096  4099  4100     5 
 4096  4099  4101     5 
 4096  4099  4102     5 
 4100  4099  4101     5 
 4100  4099  4102     5 
 4101  4099  4102     5 
 4099  4102  4103     5 
 4099  4102  4104     5 
 4099  4102  4105     5 
 4103  4102  4104     5 
 4103  4102  4105     5 
 4104  4102  4105     5 
 4102  4105  4106     5 
 4102  4105  4107     5 
 4102  4105  4108     5 
 4106  4105  4107     5 
 4106  4105  4108     5 
 4107  4105  4108     5 
 4105  4108  4109     5 
 4105  4108  4110     5 
 4105  4108  4111     5 
 4109  4108  4110     5 
 4109  4108  4111     5 
 4110  4108  4111     5 
 4062  4112  4113     5 
 4062  4112  4114     5 
 4062  4112  4115     5 
 4113  4112  4114     5 
 4113  4112  4115     5 
 4114  4112  4115     5 
 4112  4115  4116     5 
 4112  4115  4117     5 
 4112  4115  4118     5 
 4116  4115  4117     5 
 4116  4115  4118     5 
 4117  4115  4118     5 
 4115  4118  4119     5 
 4115  4118  4120     5 
 4115  4118  4121     5 
 4119  4118  4120     5 
 4119  4118  4121     5 
 4120  4118  4121     5 
 4118  4121  4122     5 
 4118  4121  4123     5 
 4118  4121  4124     5 
 4122  4121  4123     5 
 4122  4121  4124     5 
 4123  4121  4124     5 
 4121  4124  4125     5 
 4121  4124  4126     5 
 4121  4124  4127     5 
 4125  4124  4126     5 
 4125  4124  4127     5 
 4126  4124  4127     5 
 4124  4127  4128     5 
 4124  4127  4129     5 
 4124  4127  4130     5 
 4128  4127  4129     5 
 4128  4127  4130     5 
 4129  4127  4130     5 
 4127  4130  4131     5 
 4127  4130  4132     5 
 4127  4130  4133     5 
 4131  4130  4132     5 
 4131  4130  4133     5 
 4132  4130  4133     5 
 4130  4133  4134     5 
 4130  4133  4135     5 
 4130  4133  4136     5 
 4134  4133  4135     5 
 4134  4133  4136     5 
 4135  4133  4136     5 
 4133  4136  4137     5 
 4133  4136  4138     5 
 4133  4136  4139     5 
 4137  4136  4138     5 
 4137  4136  4139     5 
 4138  4136  4139     5 
 4136  4139  4140     5 
 4136  4139  4141     5 
 4136  4139  4142     5 
 4140  4139  4141     5 
 4140  4139  4142     5 
 4141  4139  4142     5 
 4139  4142  4143     5 
 4139  4142  4144     5 
 4139  4142  4145     5 
 4143  4142  4144     5 
 4143  4142  4145     5 
 4144  4142  4145     5 
 4142  4145  4146     5 
 4142  4145  4147     5 
 4142  4145  4148     5 
 4146  4145  4147     5 
 4146  4145  4148     5 
 4147  4145  4148     5 
 4145  4148  4149     5 
 4145  4148  4150     5 
 4145  4148  4151     5 
 4149  4148  4150     5 
 4149  4148  4151     5 
 4150  4148  4151     5 
 4148  4151  4152     5 
 4148  4151  4153     5 
 4148  4151  4154     5 
 4152  4151  4153     5 
 4152  4151  4154     5 
 4153  4151  4154     5 
 4156  4155  4159     5 
 4156  4155  4163     5 
 4156  4155  4167     5 
 4159  4155  4163     5 
 4159  4155  4167     5 
 4163  4155  4167     5 
 4155  4156  4157     5 
 4155  4156  4158     5 
 4155  4156  4171     5 
 4157  4156  4158     5 
 4157  4156  4171     5 
 4158  4156  4171     5 
 4155  4159  4160     5 
 4155  4159  4161     5 
 4155  4159  4162     5 
 4160  4159  4161     5 
 4160  4159  4162     5 
 4161  4159  4162     5 
 4155  4163  4164     5 
 4155  4163  4165     5 
 4155  4163  4166     5 
 4164  4163  4165     5 
 4164  4163  4166     5 
 4165  4163  4166     5 
 4155  4167  4168     5 
 4155  4167  4169     5 
 4155  4167  4170     5 
 4168  4167  4169     5 
 4168  4167  4170     5 
 4169  4167  4170     5 
 4156  4171  4172     5 
 4156  4171  4173     5 
 4156  4171  4177     5 
 4172  4171  4173     5 
 4172  4171  4177     5 
 4173  4171  4177     5 
 4175  4174  4176     5 
 4175  4174  4177     5 
 4175  4174  4178     5 
 4176  4174  4177     5 
 4176  4174  4178     5 
 4177  4174  4178     5 
 4171  4177  4174     5 
 4174  4178  4179     5 
 4178  4179  4180     5 
 4178  4179  4181     5 
 4178  4179  4182     5 
 4180  4179  4181     5 
 4180  4179  4182     5 
 4181  4179  4182     5 
 4179  4182  4183     5 
 4179  4182  4184     5 
 4179  4182  4190     5 
 4183  4182  4184     5 
 4183  4182  4190     5 
 4184  4182  4190     5 
 4182  4184  4185     5 
 4184  4185  4186     5 
 4184  4185  4187     5 
 4186  4185  4187     5 
 4185  4187  4188     5 
 4185  4187  4189     5 
 4185  4187  4199     5 
 4188  4187  4189     5 
 4188  4187  4199     5 
 4189  4187  4199     5 
 4182  4190  4191     5 
 4182  4190  4192     5 
 4182  4190  4193     5 
 4191  4190  4192     5 
 4191  4190  4193     5 
 4192  4190  4193     5 
 4190  4193  4194     5 
 4193  4194  4195     5 
 4193  4194  4196     5 
 4195  4194  4196     5 
 4194  4196  4197     5 
 4194  4196  4198     5 
 4194  4196  4246     5 
 4197  4196  4198     5 
 4197  4196  4246     5 
 4198  4196  4246     5 
 4187  4199  4200     5 
 4187  4199  4201     5 
 4187  4199  4202     5 
 4200  4199  4201     5 
 4200  4199  4202     5 
 4201  4199  4202     5 
 4199  4202  4203     5 
 4199  4202  4204     5 
 4199  4202  4205     5 
 4203  4202  4204     5 
 4203  4202  4205     5 
 4204  4202  4205     5 
 4202  4205  4206     5 
 4202  4205  4207     5 
 4202  4205  4208     5 
 4206  4205  4207     5 
 4206  4205  4208     5 
 4207  4205  4208     5 
 4205  4208  4209     5 
 4205  4208  4210     5 
 4205  4208  4211     5 
 4209  4208  4210     5 
 4209  4208  4211     5 
 4210  4208  4211     5 
 4208  4211  4212     5 
 4208  4211  4213     5 
 4208  4211  4214     5 
 4212  4211  4213     5 
 4212  4211  4214     5 
 4213  4211  4214     5 
 4211  4214  4215     5 
 4211  4214  4216     5 
 4211  4214  4217     5 
 4215  4214  4216     5 
 4215  4214  4217     5 
 4216  4214  4217     5 
 4214  4217  4218     5 
 4214  4217  4219     5 
 4218  4217  4219     5 
 4217  4219  4220     5 
 4217  4219  4221     5 
 4220  4219  4221     5 
 4219  4221  4222     5 
 4219  4221  4223     5 
 4219  4221  4224     5 
 4222  4221  4223     5 
 4222  4221  4224     5 
 4223  4221  4224     5 
 4221  4224  4225     5 
 4221  4224  4226     5 
 4221  4224  4227     5 
 4225  4224  4226     5 
 4225  4224  4227     5 
 4226  4224  4227     5 
 4224  4227  4228     5 
 4224  4227  4229     5 
 4224  4227  4230     5 
 4228  4227  4229     5 
 4228  4227  4230     5 
 4229  4227  4230     5 
 4227  4230  4231     5 
 4227  4230  4232     5 
 4227  4230  4233     5 
 4231  4230  4232     5 
 4231  4230  4233     5 
 4232  4230  4233     5 
 4230  4233  4234     5 
 4230  4233  4235     5 
 4230  4233  4236     5 
 4234  4233  4235     5 
 4234  4233  4236     5 
 4235  4233  4236     5 
 4233  4236  4237     5 
 4233  4236  4238     5 
 4233  4236  4239     5 
 4237  4236  4238     5 
 4237  4236  4239     5 
 4238  4236  4239     5 
 4236  4239  4240     5 
 4236  4239  4241     5 
 4236  4239  4242     5 
 4240  4239  4241     5 
 4240  4239  4242     5 
 4241  4239  4242     5 
 4239  4242  4243     5 
 4239  4242  4244     5 
 4239  4242  4245     5 
 4243  4242  4244     5 
 4243  4242  4245     5 
 4244  4242  4245     5 
 4196  4246  4247     5 
 4196  4246  4248     5 
 4196  4246  4249     5 
 4247  4246  4248     5 
 4247  4246  4249     5 
 4248  4246  4249     5 
 4246  4249  4250     5 
 4246  4249  4251     5 
 4246  4249  4252     5 
 4250  4249  4251     5 
 4250  4249  4252     5 
 4251  4249  4252     5 
 4249  4252  4253     5 
 4249  4252  4254     5 
 4249  4252  4255     5 
 4253  4252  4254     5 
 4253  4252  4255     5 
 4254  4252  4255     5 
 4252  4255  4256     5 
 4252  4255  4257     5 
 4252  4255  4258     5 
 4256  4255  4257     5 
 4256  4255  4258     5 
 4257  4255  4258     5 
 4255  4258  4259     5 
 4255  4258  4260     5 
 4255  4258  4261     5 
 4259  4258  4260     5 
 4259  4258  4261     5 
 4260  4258  4261     5 
 4258  4261  4262     5 
 4258  4261  4263     5 
 4258  4261  4264     5 
 4262  4261  4263     5 
 4262  4261  4264     5 
 4263  4261  4264     5 
 4261  4264  4265     5 
 4261  4264  4266     5 
 4261  4264  4267     5 
 4265  4264  4266     5 
 4265  4264  4267     5 
 4266  4264  4267     5 
 4264  4267  4268     5 
 4264  4267  4269     5 
 4264  4267  4270     5 
 4268  4267  4269     5 
 4268  4267  4270     5 
 4269  4267  4270     5 
 4267  4270  4271     5 
 4267  4270  4272     5 
 4267  4270  4273     5 
 4271  4270  4272     5 
 4271  4270  4273     5 
 4272  4270  4273     5 
 4270  4273  4274     5 
 4270  4273  4275     5 
 4270  4273  4276     5 
 4274  4273  4275     5 
 4274  4273  4276     5 
 4275  4273  4276     5 
 4273  4276  4277     5 
 4273  4276  4278     5 
 4273  4276  4279     5 
 4277  4276  4278     5 
 4277  4276  4279     5 
 4278  4276  4279     5 
 4276  4279  4280     5 
 4276  4279  4281     5 
 4276  4279  4282     5 
 4280  4279  4281     5 
 4280  4279  4282     5 
 4281  4279  4282     5 
 4279  4282  4283     5 
 4279  4282  4284     5 
 4279  4282  4285     5 
 4283  4282  4284     5 
 4283  4282  4285     5 
 4284  4282  4285     5 
 4282  4285  4286     5 
 4282  4285  4287     5 
 4282  4285  4288     5 
 4286  4285  4287     5 
 4286  4285  4288     5 
 4287  4285  4288     5 
 4290  4289  4293     5 
 4290  4289  4297     5 
 4290  4289  4301     5 
 4293  4289  4297     5 
 4293  4289  4301     5 
 4297  4289  4301     5 
 4289  4290  4291     5 
 4289  4290  4292     5 
 4289  4290  4305     5 
 4291  4290  4292     5 
 4291  4290  4305     5 
 4292  4290  4305     5 
 4289  4293  4294     5 
 4289  4293  4295     5 
 4289  4293  4296     5 
 4294  4293  4295     5 
 4294  4293  4296     5 
 4295  4293  4296     5 
 4289  4297  4298     5 
 4289  4297  4299     5 
 4289  4297  4300     5 
 4298  4297  4299     5 
 4298  4297  4300     5 
 4299  4297  4300     5 
 4289  4301  4302     5 
 4289  4301  4303     5 
 4289  4301  4304     5 
 4302  4301  4303     5 
 4302  4301  4304     5 
 4303  4301  4304     5 
 4290  4305  4306     5 
 4290  4305  4307     5 
 4290  4305  4311     5 
 4306  4305  4307     5 
 4306  4305  4311     5 
 4307  4305  4311     5 
 4309  4308  4310     5 
 4309  4308  4311     5 
 4309  4308  4312     5 
 4310  4308  4311     5 
 4310  4308  4312     5 
 4311  4308  4312     5 
 4305  4311  4308     5 
 4308  4312  4313     5 
 4312  4313  4314     5 
 4312  4313  4315     5 
 4312  4313  4316     5 
 4314  4313  4315     5 
 4314  4313  4316     5 
 4315  4313  4316     5 
 4313  4316  4317     5 
 4313  4316  4318     5 
 4313  4316  4324     5 
 4317  4316  4318     5 
 4317  4316  4324     5 
 4318  4316  4324     5 
 4316  4318  4319     5 
 4318  4319  4320     5 
 4318  4319  4321     5 
 4320  4319  4321     5 
 4319  4321  4322     5 
 4319  4321  4323     5 
 4319  4321  4333     5 
 4322  4321  4323     5 
 4322  4321  4333     5 
 4323  4321  4333     5 
 4316  4324  4325     5 
 4316  4324  4326     5 
 4316  4324  4327     5 
 4325  4324  4326     5 
 4325  4324  4327     5 
 4326  4324  4327     5 
 4324  4327  4328     5 
 4327  4328  4329     5 
 4327  4328  4330     5 
 4329  4328  4330     5 
 4328  4330  4331     5 
 4328  4330  4332     5 
 4328  4330  4380     5 
 4331  4330  4332     5 
 4331  4330  4380     5 
 4332  4330  4380     5 
 4321  4333  4334     5 
 4321  4333  4335     5 
 4321  4333  4336     5 
 4334  4333  4335     5 
 4334  4333  4336     5 
 4335  4333  4336     5 
 4333  4336  4337     5 
 4333  4336  4338     5 
 4333  4336  4339     5 
 4337  4336  4338     5 
 4337  4336  4339     5 
 4338  4336  4339     5 
 4336  4339  4340     5 
 4336  4339  4341     5 
 4336  4339  4342     5 
 4340  4339  4341     5 
 4340  4339  4342     5 
 4341  4339  4342     5 
 4339  4342  4343     5 
 4339  4342  4344     5 
 4339  4342  4345     5 
 4343  4342  4344     5 
 4343  4342  4345     5 
 4344  4342  4345     5 
 4342  4345  4346     5 
 4342  4345  4347     5 
 4342  4345  4348     5 
 4346  4345  4347     5 
 4346  4345  4348     5 
 4347  4345  4348     5 
 4345  4348  4349     5 
 4345  4348  4350     5 
 4345  4348  4351     5 
 4349  4348  4350     5 
 4349  4348  4351     5 
 4350  4348  4351     5 
 4348  4351  4352     5 
 4348  4351  4353     5 
 4352  4351  4353     5 
 4351  4353  4354     5 
 4351  4353  4355     5 
 4354  4353  4355     5 
 4353  4355  4356     5 
 4353  4355  4357     5 
 4353  4355  4358     5 
 4356  4355  4357     5 
 4356  4355  4358     5 
 4357  4355  4358     5 
 4355  4358  4359     5 
 4355  4358  4360     5 
 4355  4358  4361     5 
 4359  4358  4360     5 
 4359  4358  4361     5 
 4360  4358  4361     5 
 4358  4361  4362     5 
 4358  4361  4363     5 
 4358  4361  4364     5 
 4362  4361  4363     5 
 4362  4361  4364     5 
 4363  4361  4364     5 
 4361  4364  4365     5 
 4361  4364  4366     5 
 4361  4364  4367     5 
 4365  4364  4366     5 
 4365  4364  4367     5 
 4366  4364  4367     5 
 4364  4367  4368     5 
 4364  4367  4369     5 
 4364  4367  4370     5 
 4368  4367  4369     5 
 4368  4367  4370     5 
 4369  4367  4370     5 
 4367  4370  4371     5 
 4367  4370  4372     5 
 4367  4370  4373     5 
 4371  4370  4372     5 
 4371  4370  4373     5 
 4372  4370  4373     5 
 4370  4373  4374     5 
 4370  4373  4375     5 
 4370  4373  4376     5 
 4374  4373  4375     5 
 4374  4373  4376     5 
 4375  4373  4376     5 
 4373  4376  4377     5 
 4373  4376  4378     5 
 4373  4376  4379     5 
 4377  4376  4378     5 
 4377  4376  4379     5 
 4378  4376  4379     5 
 4330  4380  4381     5 
 4330  4380  4382     5 
 4330  4380  4383     5 
 4381  4380  4382     5 
 4381  4380  4383     5 
 4382  4380  4383     5 
 4380  4383  4384     5 
 4380  4383  4385     5 
 4380  4383  4386     5 
 4384  4383  4385     5 
 4384  4383  4386     5 
 4385  4383  4386     5 
 4383  4386  4387     5 
 4383  4386  4388     5 
 4383  4386  4389     5 
 4387  4386  4388     5 
 4387  4386  4389     5 
 4388  4386  4389     5 
 4386  4389  4390     5 
 4386  4389  4391     5 
 4386  4389  4392     5 
 4390  4389  4391     5 
 4390  4389  4392     5 
 4391  4389  4392     5 
 4389  4392  4393     5 
 4389  4392  4394     5 
 4389  4392  4395     5 
 4393  4392  4394     5 
 4393  4392  4395     5 
 4394  4392  4395     5 
 4392  4395  4396     5 
 4392  4395  4397     5 
 4392  4395  4398     5 
 4396  4395  4397     5 
 4396  4395  4398     5 
 4397  4395  4398     5 
 4395  4398  4399     5 
 4395  4398  4400     5 
 4395  4398  4401     5 
 4399  4398  4400     5 
 4399  4398  4401     5 
 4400  4398  4401     5 
 4398  4401  4402     5 
 4398  4401  4403     5 
 4398  4401  4404     5 
 4402  4401  4403     5 
 4402  4401  4404     5 
 4403  4401  4404     5 
 4401  4404  4405     5 
 4401  4404  4406     5 
 4401  4404  4407     5 
 4405  4404  4406     5 
 4405  4404  4407     5 
 4406  4404  4407     5 
 4404  4407  4408     5 
 4404  4407  4409     5 
 4404  4407  4410     5 
 4408  4407  4409     5 
 4408  4407  4410     5 
 4409  4407  4410     5 
 4407  4410  4411     5 
 4407  4410  4412     5 
 4407  4410  4413     5 
 4411  4410  4412     5 
 4411  4410  4413     5 
 4412  4410  4413     5 
 4410  4413  4414     5 
 4410  4413  4415     5 
 4410  4413  4416     5 
 4414  4413  4415     5 
 4414  4413  4416     5 
 4415  4413  4416     5 
 4413  4416  4417     5 
 4413  4416  4418     5 
 4413  4416  4419     5 
 4417  4416  4418     5 
 4417  4416  4419     5 
 4418  4416  4419     5 
 4416  4419  4420     5 
 4416  4419  4421     5 
 4416  4419  4422     5 
 4420  4419  4421     5 
 4420  4419  4422     5 
 4421  4419  4422     5 
 4424  4423  4427     5 
 4424  4423  4431     5 
 4424  4423  4435     5 
 4427  4423  4431     5 
 4427  4423  4435     5 
 4431  4423  4435     5 
 4423  4424  4425     5 
 4423  4424  4426     5 
 4423  4424  4439     5 
 4425  4424  4426     5 
 4425  4424  4439     5 
 4426  4424  4439     5 
 4423  4427  4428     5 
 4423  4427  4429     5 
 4423  4427  4430     5 
 4428  4427  4429     5 
 4428  4427  4430     5 
 4429  4427  4430     5 
 4423  4431  4432     5 
 4423  4431  4433     5 
 4423  4431  4434     5 
 4432  4431  4433     5 
 4432  4431  4434     5 
 4433  4431  4434     5 
 4423  4435  4436     5 
 4423  4435  4437     5 
 4423  4435  4438     5 
 4436  4435  4437     5 
 4436  4435  4438     5 
 4437  4435  4438     5 
 4424  4439  4440     5 
 4424  4439  4441     5 
 4424  4439  4445     5 
 4440  4439  4441     5 
 4440  4439  4445     5 
 4441  4439  4445     5 
 4443  4442  4444     5 
 4443  4442  4445     5 
 4443  4442  4446     5 
 4444  4442  4445     5 
 4444  4442  4446     5 
 4445  4442  4446     5 
 4439  4445  4442     5 
 4442  4446  4447     5 
 4446  4447  4448     5 
 4446  4447  4449     5 
 4446  4447  4450     5 
 4448  4447  4449     5 
 4448  4447  4450     5 
 4449  4447  4450     5 
 4447  4450  4451     5 
 4447  4450  4452     5 
 4447  4450  4458     5 
 4451  4450  4452     5 
 4451  4450  4458     5 
 4452  4450  4458     5 
 4450  4452  4453     5 
 4452  4453  4454     5 
 4452  4453  4455     5 
 4454  4453  4455     5 
 4453  4455  4456     5 
 4453  4455  4457     5 
 4453  4455  4467     5 
 4456  4455  4457     5 
 4456  4455  4467     5 
 4457  4455  4467     5 
 4450  4458  4459     5 
 4450  4458  4460     5 
 4450  4458  4461     5 
 4459  4458  4460     5 
 4459  4458  4461     5 
 4460  4458  4461     5 
 4458  4461  4462     5 
 4461  4462  4463     5 
 4461  4462  4464     5 
 4463  4462  4464     5 
 4462  4464  4465     5 
 4462  4464  4466     5 
 4462  4464  4514     5 
 4465  4464  4466     5 
 4465  4464  4514     5 
 4466  4464  4514     5 
 4455  4467  4468     5 
 4455  4467  4469     5 
 4455  4467  4470     5 
 4468  4467  4469     5 
 4468  4467  4470     5 
 4469  4467  4470     5 
 4467  4470  4471     5 
 4467  4470  4472     5 
 4467  4470  4473     5 
 4471  4470  4472     5 
 4471  4470  4473     5 
 4472  4470  4473     5 
 4470  4473  4474     5 
 4470  4473  4475     5 
 4470  4473  4476     5 
 4474  4473  4475     5 
 4474  4473  4476     5 
 4475  4473  4476     5 
 4473  4476  4477     5 
 4473  4476  4478     5 
 4473  4476  4479     5 
 4477  4476  4478     5 
 4477  4476  4479     5 
 4478  4476  4479     5 
 4476  4479  4480     5 
 4476  4479  4481     5 
 4476  4479  4482     5 
 4480  4479  4481     5 
 4480  4479  4482     5 
 4481  4479  4482     5 
 4479  4482  4483     5 
 4479  4482  4484     5 
 4479  4482  4485     5 
 4483  4482  4484     5 
 4483  4482  4485     5 
 4484  4482  4485     5 
 4482  4485  4486     5 
 4482  4485  4487     5 
 4486  4485  4487     5 
 4485  4487  4488     5 
 4485  4487  4489     5 
 4488  4487  4489     5 
 4487  4489  4490     5 
 4487  4489  4491     5 
 4487  4489  4492     5 
 4490  4489  4491     5 
 4490  4489  4492     5 
 4491  4489  4492     5 
 4489  4492  4493     5 
 4489  4492  4494     5 
 4489  4492  4495     5 
 4493  4492  4494     5 
 4493  4492  4495     5 
 4494  4492  4495     5 
 4492  4495  4496     5 
 4492  4495  4497     5 
 4492  4495  4498     5 
 4496  4495  4497     5 
 4496  4495  4498     5 
 4497  4495  4498     5 
 4495  4498  4499     5 
 4495  4498  4500     5 
 4495  4498  4501     5 
 4499  4498  4500     5 
 4499  4498  4501     5 
 4500  4498  4501     5 
 4498  4501  4502     5 
 4498  4501  4503     5 
 4498  4501  4504     5 
 4502  4501  4503     5 
 4502  4501  4504     5 
 4503  4501  4504     5 
 4501  4504  4505     5 
 4501  4504  4506     5 
 4501  4504  4507     5 
 4505  4504  4506     5 
 4505  4504  4507     5 
 4506  4504  4507     5 
 4504  4507  4508     5 
 4504  4507  4509     5 
 4504  4507  4510     5 
 4508  4507  4509     5 
 4508  4507  4510     5 
 4509  4507  4510     5 
 4507  4510  4511     5 
 4507  4510  4512     5 
 4507  4510  4513     5 
 4511  4510  4512     5 
 4511  4510  4513     5 
 4512  4510  4513     5 
 4464  4514  4515     5 
 4464  4514  4516     5 
 4464  4514  4517     5 
 4515  4514  4516     5 
 4515  4514  4517     5 
 4516  4514  4517     5 
 4514  4517  4518     5 
 4514  4517  4519     5 
 4514  4517  4520     5 
 4518  4517  4519     5 
 4518  4517  4520     5 
 4519  4517  4520     5 
 4517  4520  4521     5 
 4517  4520  4522     5 
 4517  4520  4523     5 
 4521  4520  4522     5 
 4521  4520  4523     5 
 4522  4520  4523     5 
 4520  4523  4524     5 
 4520  4523  4525     5 
 4520  4523  4526     5 
 4524  4523  4525     5 
 4524  4523  4526     5 
 4525  4523  4526     5 
 4523  4526  4527     5 
 4523  4526  4528     5 
 4523  4526  4529     5 
 4527  4526  4528     5 
 4527  4526  4529     5 
 4528  4526  4529     5 
 4526  4529  4530     5 
 4526  4529  4531     5 
 4526  4529  4532     5 
 4530  4529  4531     5 
 4530  4529  4532     5 
 4531  4529  4532     5 
 4529  4532  4533     5 
 4529  4532  4534     5 
 4529  4532  4535     5 
 4533  4532  4534     5 
 4533  4532  4535     5 
 4534  4532  4535     5 
 4532  4535  4536     5 
 4532  4535  4537     5 
 4532  4535  4538     5 
 4536  4535  4537     5 
 4536  4535  4538     5 
 4537  4535  4538     5 
 4535  4538  4539     5 
 4535  4538  4540     5 
 4535  4538  4541     5 
 4539  4538  4540     5 
 4539  4538  4541     5 
 4540  4538  4541     5 
 4538  4541  4542     5 
 4538  4541  4543     5 
 4538  4541  4544     5 
 4542  4541  4543     5 
 4542  4541  4544     5 
 4543  4541  4544     5 
 4541  4544  4545     5 
 4541  4544  4546     5 
 4541  4544  4547     5 
 4545  4544  4546     5 
 4545  4544  4547     5 
 4546  4544  4547     5 
 4544  4547  4548     5 
 4544  4547  4549     5 
 4544  4547  4550     5 
 4548  4547  4549     5 
 4548  4547  4550     5 
 4549  4547  4550     5 
 4547  4550  4551     5 
 4547  4550  4552     5 
 4547  4550  4553     5 
 4551  4550  4552     5 
 4551  4550  4553     5 
 4552  4550  4553     5 
 4550  4553  4554     5 
 4550  4553  4555     5 
 4550  4553  4556     5 
 4554  4553  4555     5 
 4554  4553  4556     5 
 4555  4553  4556     5 
 4558  4557  4561     5 
 4558  4557  4565     5 
 4558  4557  4569     5 
 4561  4557  4565     5 
 4561  4557  4569     5 
 4565  4557  4569     5 
 4557  4558  4559     5 
 4557  4558  4560     5 
 4557  4558  4573     5 
 4559  4558  4560     5 
 4559  4558  4573     5 
 4560  4558  4573     5 
 4557  4561  4562     5 
 4557  4561  4563     5 
 4557  4561  4564     5 
 4562  4561  4563     5 
 4562  4561  4564     5 
 4563  4561  4564     5 
 4557  4565  4566     5 
 4557  4565  4567     5 
 4557  4565  4568     5 
 4566  4565  4567     5 
 4566  4565  4568     5 
 4567  4565  4568     5 
 4557  4569  4570     5 
 4557  4569  4571     5 
 4557  4569  4572     5 
 4570  4569  4571     5 
 4570  4569  4572     5 
 4571  4569  4572     5 
 4558  4573  4574     5 
 4558  4573  4575     5 
 4558  4573  4579     5 
 4574  4573  4575     5 
 4574  4573  4579     5 
 4575  4573  4579     5 
 4577  4576  4578     5 
 4577  4576  4579     5 
 4577  4576  4580     5 
 4578  4576  4579     5 
 4578  4576  4580     5 
 4579  4576  4580     5 
 4573  4579  4576     5 
 4576  4580  4581     5 
 4580  4581  4582     5 
 4580  4581  4583     5 
 4580  4581  4584     5 
 4582  4581  4583     5 
 4582  4581  4584     5 
 4583  4581  4584     5 
 4581  4584  4585     5 
 4581  4584  4586     5 
 4581  4584  4592     5 
 4585  4584  4586     5 
 4585  4584  4592     5 
 4586  4584  4592     5 
 4584  4586  4587     5 
 4586  4587  4588     5 
 4586  4587  4589     5 
 4588  4587  4589     5 
 4587  4589  4590     5 
 4587  4589  4591     5 
 4587  4589  4601     5 
 4590  4589  4591     5 
 4590  4589  4601     5 
 4591  4589  4601     5 
 4584  4592  4593     5 
 4584  4592  4594     5 
 4584  4592  4595     5 
 4593  4592  4594     5 
 4593  4592  4595     5 
 4594  4592  4595     5 
 4592  4595  4596     5 
 4595  4596  4597     5 
 4595  4596  4598     5 
 4597  4596  4598     5 
 4596  4598  4599     5 
 4596  4598  4600     5 
 4596  4598  4648     5 
 4599  4598  4600     5 
 4599  4598  4648     5 
 4600  4598  4648     5 
 4589  4601  4602     5 
 4589  4601  4603     5 
 4589  4601  4604     5 
 4602  4601  4603     5 
 4602  4601  4604     5 
 4603  4601  4604     5 
 4601  4604  4605     5 
 4601  4604  4606     5 
 4601  4604  4607     5 
 4605  4604  4606     5 
 4605  4604  4607     5 
 4606  4604  4607     5 
 4604  4607  4608     5 
 4604  4607  4609     5 
 4604  4607  4610     5 
 4608  4607  4609     5 
 4608  4607  4610     5 
 4609  4607  4610     5 
 4607  4610  4611     5 
 4607  4610  4612     5 
 4607  4610  4613     5 
 4611  4610  4612     5 
 4611  4610  4613     5 
 4612  4610  4613     5 
 4610  4613  4614     5 
 4610  4613  4615     5 
 4610  4613  4616     5 
 4614  4613  4615     5 
 4614  4613  4616     5 
 4615  4613  4616     5 
 4613  4616  4617     5 
 4613  4616  4618     5 
 4613  4616  4619     5 
 4617  4616  4618     5 
 4617  4616  4619     5 
 4618  4616  4619     5 
 4616  4619  4620     5 
 4616  4619  4621     5 
 4620  4619  4621     5 
 4619  4621  4622     5 
 4619  4621  4623     5 
 4622  4621  4623     5 
 4621  4623  4624     5 
 4621  4623  4625     5 
 4621  4623  4626     5 
 4624  4623  4625     5 
 4624  4623  4626     5 
 4625  4623  4626     5 
 4623  4626  4627     5 
 4623  4626  4628     5 
 4623  4626  4629     5 
 4627  4626  4628     5 
 4627  4626  4629     5 
 4628  4626  4629     5 
 4626  4629  4630     5 
 4626  4629  4631     5 
 4626  4629  4632     5 
 4630  4629  4631     5 
 4630  4629  4632     5 
 4631  4629  4632     5 
 4629  4632  4633     5 
 4629  4632  4634     5 
 4629  4632  4635     5 
 4633  4632  4634     5 
 4633  4632  4635     5 
 4634  4632  4635     5 
 4632  4635  4636     5 
 4632  4635  4637     5 
 4632  4635  4638     5 
 4636  4635  4637     5 
 4636  4635  4638     5 
 4637  4635  4638     5 
 4635  4638  4639     5 
 4635  4638  4640     5 
 4635  4638  4641     5 
 4639  4638  4640     5 
 4639  4638  4641     5 
 4640  4638  4641     5 
 4638  4641  4642     5 
 4638  4641  4643     5 
 4638  4641  4644     5 
 4642  4641  4643     5 
 4642  4641  4644     5 
 4643  4641  4644     5 
 4641  4644  4645     5 
 4641  4644  4646     5 
 4641  4644  4647     5 
 4645  4644  4646     5 
 4645  4644  4647     5 
 4646  4644  4647     5 
 4598  4648  4649     5 
 4598  4648  4650     5 
 4598  4648  4651     5 
 4649  4648  4650     5 
 4649  4648  4651     5 
 4650  4648  4651     5 
 4648  4651  4652     5 
 4648  4651  4653     5 
 4648  4651  4654     5 
 4652  4651  4653     5 
 4652  4651  4654     5 
 4653  4651  4654     5 
 4651  4654  4655     5 
 4651  4654  4656     5 
 4651  4654  4657     5 
 4655  4654  4656     5 
 4655  4654  4657     5 
 4656  4654  4657     5 
 4654  4657  4658     5 
 4654  4657  4659     5 
 4654  4657  4660     5 
 4658  4657  4659     5 
 4658  4657  4660     5 
 4659  4657  4660     5 
 4657  4660  4661     5 
 4657  4660  4662     5 
 4657  4660  4663     5 
 4661  4660  4662     5 
 4661  4660  4663     5 
 4662  4660  4663     5 
 4660  4663  4664     5 
 4660  4663  4665     5 
 4660  4663  4666     5 
 4664  4663  4665     5 
 4664  4663  4666     5 
 4665  4663  4666     5 
 4663  4666  4667     5 
 4663  4666  4668     5 
 4663  4666  4669     5 
 4667  4666  4668     5 
 4667  4666  4669     5 
 4668  4666  4669     5 
 4666  4669  4670     5 
 4666  4669  4671     5 
 4666  4669  4672     5 
 4670  4669  4671     5 
 4670  4669  4672     5 
 4671  4669  4672     5 
 4669  4672  4673     5 
 4669  4672  4674     5 
 4669  4672  4675     5 
 4673  4672  4674     5 
 4673  4672  4675     5 
 4674  4672  4675     5 
 4672  4675  4676     5 
 4672  4675  4677     5 
 4672  4675  4678     5 
 4676  4675  4677     5 
 4676  4675  4678     5 
 4677  4675  4678     5 
 4675  4678  4679     5 
 4675  4678  4680     5 
 4675  4678  4681     5 
 4679  4678  4680     5 
 4679  4678  4681     5 
 4680  4678  4681     5 
 4678  4681  4682     5 
 4678  4681  4683     5 
 4678  4681  4684     5 
 4682  4681  4683     5 
 4682  4681  4684     5 
 4683  4681  4684     5 
 4681  4684  4685     5 
 4681  4684  4686     5 
 4681  4684  4687     5 
 4685  4684  4686     5 
 4685  4684  4687     5 
 4686  4684  4687     5 
 4684  4687  4688     5 
 4684  4687  4689     5 
 4684  4687  4690     5 
 4688  4687  4689     5 
 4688  4687  4690     5 
 4689  4687  4690     5 
 4692  4691  4695     5 
 4692  4691  4699     5 
 4692  4691  4703     5 
 4695  4691  4699     5 
 4695  4691  4703     5 
 4699  4691  4703     5 
 4691  4692  4693     5 
 4691  4692  4694     5 
 4691  4692  4707     5 
 4693  4692  4694     5 
 4693  4692  4707     5 
 4694  4692  4707     5 
 4691  4695  4696     5 
 4691  4695  4697     5 
 4691  4695  4698     5 
 4696  4695  4697     5 
 4696  4695  4698     5 
 4697  4695  4698     5 
 4691  4699  4700     5 
 4691  4699  4701     5 
 4691  4699  4702     5 
 4700  4699  4701     5 
 4700  4699  4702     5 
 4701  4699  4702     5 
 4691  4703  4704     5 
 4691  4703  4705     5 
 4691  4703  4706     5 
 4704  4703  4705     5 
 4704  4703  4706     5 
 4705  4703  4706     5 
 4692  4707  4708     5 
 4692  4707  4709     5 
 4692  4707  4713     5 
 4708  4707  4709     5 
 4708  4707  4713     5 
 4709  4707  4713     5 
 4711  4710  4712     5 
 4711  4710  4713     5 
 4711  4710  4714     5 
 4712  4710  4713     5 
 4712  4710  4714     5 
 4713  4710  4714     5 
 4707  4713  4710     5 
 4710  4714  4715     5 
 4714  4715  4716     5 
 4714  4715  4717     5 
 4714  4715  4718     5 
 4716  4715  4717     5 
 4716  4715  4718     5 
 4717  4715  4718     5 
 4715  4718  4719     5 
 4715  4718  4720     5 
 4715  4718  4726     5 
 4719  4718  4720     5 
 4719  4718  4726     5 
 4720  4718  4726     5 
 4718  4720  4721     5 
 4720  4721  4722     5 
 4720  4721  4723     5 
 4722  4721  4723     5 
 4721  4723  4724     5 
 4721  4723  4725     5 
 4721  4723  4735     5 
 4724  4723  4725     5 
 4724  4723  4735     5 
 4725  4723  4735     5 
 4718  4726  4727     5 
 4718  4726  4728     5 
 4718  4726  4729     5 
 4727  4726  4728     5 
 4727  4726  4729     5 
 4728  4726  4729     5 
 4726  4729  4730     5 
 4729  4730  4731     5 
 4729  4730  4732     5 
 4731  4730  4732     5 
 4730  4732  4733     5 
 4730  4732  4734     5 
 4730  4732  4782     5 
 4733  4732  4734     5 
 4733  4732  4782     5 
 4734  4732  4782     5 
 4723  4735  4736     5 
 4723  4735  4737     5 
 4723  4735  4738     5 
 4736  4735  4737     5 
 4736  4735  4738     5 
 4737  4735  4738     5 
 4735  4738  4739     5 
 4735  4738  4740     5 
 4735  4738  4741     5 
 4739  4738  4740     5 
 4739  4738  4741     5 
 4740  4738  4741     5 
 4738  4741  4742     5 
 4738  4741  4743     5 
 4738  4741  4744     5 
 4742  4741  4743     5 
 4742  4741  4744     5 
 4743  4741  4744     5 
 4741  4744  4745     5 
 4741  4744  4746     5 
 4741  4744  4747     5 
 4745  4744  4746     5 
 4745  4744  4747     5 
 4746  4744  4747     5 
 4744  4747  4748     5 
 4744  4747  4749     5 
 4744  4747  4750     5 
 4748  4747  4749     5 
 4748  4747  4750     5 
 4749  4747  4750     5 
 4747  4750  4751     5 
 4747  4750  4752     5 
 4747  4750  4753     5 
 4751  4750  4752     5 
 4751  4750  4753     5 
 4752  4750  4753     5 
 4750  4753  4754     5 
 4750  4753  4755     5 
 4754  4753  4755     5 
 4753  4755  4756     5 
 4753  4755  4757     5 
 4756  4755  4757     5 
 4755  4757  4758     5 
 4755  4757  4759     5 
 4755  4757  4760     5 
 4758  4757  4759     5 
 4758  4757  4760     5 
 4759  4757  4760     5 
 4757  4760  4761     5 
 4757  4760  4762     5 
 4757  4760  4763     5 
 4761  4760  4762     5 
 4761  4760  4763     5 
 4762  4760  4763     5 
 4760  4763  4764     5 
 4760  4763  4765     5 
 4760  4763  4766     5 
 4764  4763  4765     5 
 4764  4763  4766     5 
 4765  4763  4766     5 
 4763  4766  4767     5 
 4763  4766  4768     5 
 4763  4766  4769     5 
 4767  4766  4768     5 
 4767  4766  4769     5 
 4768  4766  4769     5 
 4766  4769  4770     5 
 4766  4769  4771     5 
 4766  4769  4772     5 
 4770  4769  4771     5 
 4770  4769  4772     5 
 4771  4769  4772     5 
 4769  4772  4773     5 
 4769  4772  4774     5 
 4769  4772  4775     5 
 4773  4772  4774     5 
 4773  4772  4775     5 
 4774  4772  4775     5 
 4772  4775  4776     5 
 4772  4775  4777     5 
 4772  4775  4778     5 
 4776  4775  4777     5 
 4776  4775  4778     5 
 4777  4775  4778     5 
 4775  4778  4779     5 
 4775  4778  4780     5 
 4775  4778  4781     5 
 4779  4778  4780     5 
 4779  4778  4781     5 
 4780  4778  4781     5 
 4732  4782  4783     5 
 4732  4782  4784     5 
 4732  4782  4785     5 
 4783  4782  4784     5 
 4783  4782  4785     5 
 4784  4782  4785     5 
 4782  4785  4786     5 
 4782  4785  4787     5 
 4782  4785  4788     5 
 4786  4785  4787     5 
 4786  4785  4788     5 
 4787  4785  4788     5 
 4785  4788  4789     5 
 4785  4788  4790     5 
 4785  4788  4791     5 
 4789  4788  4790     5 
 4789  4788  4791     5 
 4790  4788  4791     5 
 4788  4791  4792     5 
 4788  4791  4793     5 
 4788  4791  4794     5 
 4792  4791  4793     5 
 4792  4791  4794     5 
 4793  4791  4794     5 
 4791  4794  4795     5 
 4791  4794  4796     5 
 4791  4794  4797     5 
 4795  4794  4796     5 
 4795  4794  4797     5 
 4796  4794  4797     5 
 4794  4797  4798     5 
 4794  4797  4799     5 
 4794  4797  4800     5 
 4798  4797  4799     5 
 4798  4797  4800     5 
 4799  4797  4800     5 
 4797  4800  4801     5 
 4797  4800  4802     5 
 4797  4800  4803     5 
 4801  4800  4802     5 
 4801  4800  4803     5 
 4802  4800  4803     5 
 4800  4803  4804     5 
 4800  4803  4805     5 
 4800  4803  4806     5 
 4804  4803  4805     5 
 4804  4803  4806     5 
 4805  4803  4806     5 
 4803  4806  4807     5 
 4803  4806  4808     5 
 4803  4806  4809     5 
 4807  4806  4808     5 
 4807  4806  4809     5 
 4808  4806  4809     5 
 4806  4809  4810     5 
 4806  4809  4811     5 
 4806  4809  4812     5 
 4810  4809  4811     5 
 4810  4809  4812     5 
 4811  4809  4812     5 
 4809  4812  4813     5 
 4809  4812  4814     5 
 4809  4812  4815     5 
 4813  4812  4814     5 
 4813  4812  4815     5 
 4814  4812  4815     5 
 4812  4815  4816     5 
 4812  4815  4817     5 
 4812  4815  4818     5 
 4816  4815  4817     5 
 4816  4815  4818     5 
 4817  4815  4818     5 
 4815  4818  4819     5 
 4815  4818  4820     5 
 4815  4818  4821     5 
 4819  4818  4820     5 
 4819  4818  4821     5 
 4820  4818  4821     5 
 4818  4821  4822     5 
 4818  4821  4823     5 
 4818  4821  4824     5 
 4822  4821  4823     5 
 4822  4821  4824     5 
 4823  4821  4824     5 
 4826  4825  4829     5 
 4826  4825  4833     5 
 4826  4825  4837     5 
 4829  4825  4833     5 
 4829  4825  4837     5 
 4833  4825  4837     5 
 4825  4826  4827     5 
 4825  4826  4828     5 
 4825  4826  4841     5 
 4827  4826  4828     5 
 4827  4826  4841     5 
 4828  4826  4841     5 
 4825  4829  4830     5 
 4825  4829  4831     5 
 4825  4829  4832     5 
 4830  4829  4831     5 
 4830  4829  4832     5 
 4831  4829  4832     5 
 4825  4833  4834     5 
 4825  4833  4835     5 
 4825  4833  4836     5 
 4834  4833  4835     5 
 4834  4833  4836     5 
 4835  4833  4836     5 
 4825  4837  4838     5 
 4825  4837  4839     5 
 4825  4837  4840     5 
 4838  4837  4839     5 
 4838  4837  4840     5 
 4839  4837  4840     5 
 4826  4841  4842     5 
 4826  4841  4843     5 
 4826  4841  4847     5 
 4842  4841  4843     5 
 4842  4841  4847     5 
 4843  4841  4847     5 
 4845  4844  4846     5 
 4845  4844  4847     5 
 4845  4844  4848     5 
 4846  4844  4847     5 
 4846  4844  4848     5 
 4847  4844  4848     5 
 4841  4847  4844     5 
 4844  4848  4849     5 
 4848  4849  4850     5 
 4848  4849  4851     5 
 4848  4849  4852     5 
 4850  4849  4851     5 
 4850  4849  4852     5 
 4851  4849  4852     5 
 4849  4852  4853     5 
 4849  4852  4854     5 
 4849  4852  4860     5 
 4853  4852  4854     5 
 4853  4852  4860     5 
 4854  4852  4860     5 
 4852  4854  4855     5 
 4854  4855  4856     5 
 4854  4855  4857     5 
 4856  4855  4857     5 
 4855  4857  4858     5 
 4855  4857  4859     5 
 4855  4857  4869     5 
 4858  4857  4859     5 
 4858  4857  4869     5 
 4859  4857  4869     5 
 4852  4860  4861     5 
 4852  4860  4862     5 
 4852  4860  4863     5 
 4861  4860  4862     5 
 4861  4860  4863     5 
 4862  4860  4863     5 
 4860  4863  4864     5 
 4863  4864  4865     5 
 4863  4864  4866     5 
 4865  4864  4866     5 
 4864  4866  4867     5 
 4864  4866  4868     5 
 4864  4866  4916     5 
 4867  4866  4868     5 
 4867  4866  4916     5 
 4868  4866  4916     5 
 4857  4869  4870     5 
 4857  4869  4871     5 
 4857  4869  4872     5 
 4870  4869  4871     5 
 4870  4869  4872     5 
 4871  4869  4872     5 
 4869  4872  4873     5 
 4869  4872  4874     5 
 4869  4872  4875     5 
 4873  4872  4874     5 
 4873  4872  4875     5 
 4874  4872  4875     5 
 4872  4875  4876     5 
 4872  4875  4877     5 
 4872  4875  4878     5 
 4876  4875  4877     5 
 4876  4875  4878     5 
 4877  4875  4878     5 
 4875  4878  4879     5 
 4875  4878  4880     5 
 4875  4878  4881     5 
 4879  4878  4880     5 
 4879  4878  4881     5 
 4880  4878  4881     5 
 4878  4881  4882     5 
 4878  4881  4883     5 
 4878  4881  4884     5 
 4882  4881  4883     5 
 4882  4881  4884     5 
 4883  4881  4884     5 
 4881  4884  4885     5 
 4881  4884  4886     5 
 4881  4884  4887     5 
 4885  4884  4886     5 
 4885  4884  4887     5 
 4886  4884  4887     5 
 4884  4887  4888     5 
 4884  4887  4889     5 
 4888  4887  4889     5 
 4887  4889  4890     5 
 4887  4889  4891     5 
 4890  4889  4891     5 
 4889  4891  4892     5 
 4889  4891  4893     5 
 4889  4891  4894     5 
 4892  4891  4893     5 
 4892  4891  4894     5 
 4893  4891  4894     5 
 4891  4894  4895     5 
 4891  4894  4896     5 
 4891  4894  4897     5 
 4895  4894  4896     5 
 4895  4894  4897     5 
 4896  4894  4897     5 
 4894  4897  4898     5 
 4894  4897  4899     5 
 4894  4897  4900     5 
 4898  4897  4899     5 
 4898  4897  4900     5 
 4899  4897  4900     5 
 4897  4900  4901     5 
 4897  4900  4902     5 
 4897  4900  4903     5 
 4901  4900  4902     5 
 4901  4900  4903     5 
 4902  4900  4903     5 
 4900  4903  4904     5 
 4900  4903  4905     5 
 4900  4903  4906     5 
 4904  4903  4905     5 
 4904  4903  4906     5 
 4905  4903  4906     5 
 4903  4906  4907     5 
 4903  4906  4908     5 
 4903  4906  4909     5 
 4907  4906  4908     5 
 4907  4906  4909     5 
 4908  4906  4909     5 
 4906  4909  4910     5 
 4906  4909  4911     5 
 4906  4909  4912     5 
 4910  4909  4911     5 
 4910  4909  4912     5 
 4911  4909  4912     5 
 4909  4912  4913     5 
 4909  4912  4914     5 
 4909  4912  4915     5 
 4913  4912  4914     5 
 4913  4912  4915     5 
 4914  4912  4915     5 
 4866  4916  4917     5 
 4866  4916  4918     5 
 4866  4916  4919     5 
 4917  4916  4918     5 
 4917  4916  4919     5 
 4918  4916  4919     5 
 4916  4919  4920     5 
 4916  4919  4921     5 
 4916  4919  4922     5 
 4920  4919  4921     5 
 4920  4919  4922     5 
 4921  4919  4922     5 
 4919  4922  4923     5 
 4919  4922  4924     5 
 4919  4922  4925     5 
 4923  4922  4924     5 
 4923  4922  4925     5 
 4924  4922  4925     5 
 4922  4925  4926     5 
 4922  4925  4927     5 
 4922  4925  4928     5 
 4926  4925  4927     5 
 4926  4925  4928     5 
 4927  4925  4928     5 
 4925  4928  4929     5 
 4925  4928  4930     5 
 4925  4928  4931     5 
 4929  4928  4930     5 
 4929  4928  4931     5 
 4930  4928  4931     5 
 4928  4931  4932     5 
 4928  4931  4933     5 
 4928  4931  4934     5 
 4932  4931  4933     5 
 4932  4931  4934     5 
 4933  4931  4934     5 
 4931  4934  4935     5 
 4931  4934  4936     5 
 4931  4934  4937     5 
 4935  4934  4936     5 
 4935  4934  4937     5 
 4936  4934  4937     5 
 4934  4937  4938     5 
 4934  4937  4939     5 
 4934  4937  4940     5 
 4938  4937  4939     5 
 4938  4937  4940     5 
 4939  4937  4940     5 
 4937  4940  4941     5 
 4937  4940  4942     5 
 4937  4940  4943     5 
 4941  4940  4942     5 
 4941  4940  4943     5 
 4942  4940  4943     5 
 4940  4943  4944     5 
 4940  4943  4945     5 
 4940  4943  4946     5 
 4944  4943  4945     5 
 4944  4943  4946     5 
 4945  4943  4946     5 
 4943  4946  4947     5 
 4943  4946  4948     5 
 4943  4946  4949     5 
 4947  4946  4948     5 
 4947  4946  4949     5 
 4948  4946  4949     5 
 4946  4949  4950     5 
 4946  4949  4951     5 
 4946  4949  4952     5 
 4950  4949  4951     5 
 4950  4949  4952     5 
 4951  4949  4952     5 
 4949  4952  4953     5 
 4949  4952  4954     5 
 4949  4952  4955     5 
 4953  4952  4954     5 
 4953  4952  4955     5 
 4954  4952  4955     5 
 4952  4955  4956     5 
 4952  4955  4957     5 
 4952  4955  4958     5 
 4956  4955  4957     5 
 4956  4955  4958     5 
 4957  4955  4958     5 
 4960  4959  4963     5 
 4960  4959  4967     5 
 4960  4959  4971     5 
 4963  4959  4967     5 
 4963  4959  4971     5 
 4967  4959  4971     5 
 4959  4960  4961     5 
 4959  4960  4962     5 
 4959  4960  4975     5 
 4961  4960  4962     5 
 4961  4960  4975     5 
 4962  4960  4975     5 
 4959  4963  4964     5 
 4959  4963  4965     5 
 4959  4963  4966     5 
 4964  4963  4965     5 
 4964  4963  4966     5 
 4965  4963  4966     5 
 4959  4967  4968     5 
 4959  4967  4969     5 
 4959  4967  4970     5 
 4968  4967  4969     5 
 4968  4967  4970     5 
 4969  4967  4970     5 
 4959  4971  4972     5 
 4959  4971  4973     5 
 4959  4971  4974     5 
 4972  4971  4973     5 
 4972  4971  4974     5 
 4973  4971  4974     5 
 4960  4975  4976     5 
 4960  4975  4977     5 
 4960  4975  4981     5 
 4976  4975  4977     5 
 4976  4975  4981     5 
 4977  4975  4981     5 
 4979  4978  4980     5 
 4979  4978  4981     5 
 4979  4978  4982     5 
 4980  4978  4981     5 
 4980  4978  4982     5 
 4981  4978  4982     5 
 4975  4981  4978     5 
 4978  4982  4983     5 
 4982  4983  4984     5 
 4982  4983  4985     5 
 4982  4983  4986     5 
 4984  4983  4985     5 
 4984  4983  4986     5 
 4985  4983  4986     5 
 4983  4986  4987     5 
 4983  4986  4988     5 
 4983  4986  4994     5 
 4987  4986  4988     5 
 4987  4986  4994     5 
 4988  4986  4994     5 
 4986  4988  4989     5 
 4988  4989  4990     5 
 4988  4989  4991     5 
 4990  4989  4991     5 
 4989  4991  4992     5 
 4989  4991  4993     5 
 4989  4991  5003     5 
 4992  4991  4993     5 
 4992  4991  5003     5 
 4993  4991  5003     5 
 4986  4994  4995     5 
 4986  4994  4996     5 
 4986  4994  4997     5 
 4995  4994  4996     5 
 4995  4994  4997     5 
 4996  4994  4997     5 
 4994  4997  4998     5 
 4997  4998  4999     5 
 4997  4998  5000     5 
 4999  4998  5000     5 
 4998  5000  5001     5 
 4998  5000  5002     5 
 4998  5000  5050     5 
 5001  5000  5002     5 
 5001  5000  5050     5 
 5002  5000  5050     5 
 4991  5003  5004     5 
 4991  5003  5005     5 
 4991  5003  5006     5 
 5004  5003  5005     5 
 5004  5003  5006     5 
 5005  5003  5006     5 
 5003  5006  5007     5 
 5003  5006  5008     5 
 5003  5006  5009     5 
 5007  5006  5008     5 
 5007  5006  5009     5 
 5008  5006  5009     5 
 5006  5009  5010     5 
 5006  5009  5011     5 
 5006  5009  5012     5 
 5010  5009  5011     5 
 5010  5009  5012     5 
 5011  5009  5012     5 
 5009  5012  5013     5 
 5009  5012  5014     5 
 5009  5012  5015     5 
 5013  5012  5014     5 
 5013  5012  5015     5 
 5014  5012  5015     5 
 5012  5015  5016     5 
 5012  5015  5017     5 
 5012  5015  5018     5 
 5016  5015  5017     5 
 5016  5015  5018     5 
 5017  5015  5018     5 
 5015  5018  5019     5 
 5015  5018  5020     5 
 5015  5018  5021     5 
 5019  5018  5020     5 
 5019  5018  5021     5 
 5020  5018  5021     5 
 5018  5021  5022     5 
 5018  5021  5023     5 
 5022  5021  5023     5 
 5021  5023  5024     5 
 5021  5023  5025     5 
 5024  5023  5025     5 
 5023  5025  5026     5 
 5023  5025  5027     5 
 5023  5025  5028     5 
 5026  5025  5027     5 
 5026  5025  5028     5 
 5027  5025  5028     5 
 5025  5028  5029     5 
 5025  5028  5030     5 
 5025  5028  5031     5 
 5029  5028  5030     5 
 5029  5028  5031     5 
 5030  5028  5031     5 
 5028  5031  5032     5 
 5028  5031  5033     5 
 5028  5031  5034     5 
 5032  5031  5033     5 
 5032  5031  5034     5 
 5033  5031  5034     5 
 5031  5034  5035     5 
 5031  5034  5036     5 
 5031  5034  5037     5 
 5035  5034  5036     5 
 5035  5034  5037     5 
 5036  5034  5037     5 
 5034  5037  5038     5 
 5034  5037  5039     5 
 5034  5037  5040     5 
 5038  5037  5039     5 
 5038  5037  5040     5 
 5039  5037  5040     5 
 5037  5040  5041     5 
 5037  5040  5042     5 
 5037  5040  5043     5 
 5041  5040  5042     5 
 5041  5040  5043     5 
 5042  5040  5043     5 
 5040  5043  5044     5 
 5040  5043  5045     5 
 5040  5043  5046     5 
 5044  5043  5045     5 
 5044  5043  5046     5 
 5045  5043  5046     5 
 5043  5046  5047     5 
 5043  5046  5048     5 
 5043  5046  5049     5 
 5047  5046  5048     5 
 5047  5046  5049     5 
 5048  5046  5049     5 
 5000  5050  5051     5 
 5000  5050  5052     5 
 5000  5050  5053     5 
 5051  5050  5052     5 
 5051  5050  5053     5 
 5052  5050  5053     5 
 5050  5053  5054     5 
 5050  5053  5055     5 
 5050  5053  5056     5 
 5054  5053  5055     5 
 5054  5053  5056     5 
 5055  5053  5056     5 
 5053  5056  5057     5 
 5053  5056  5058     5 
 5053  5056  5059     5 
 5057  5056  5058     5 
 5057  5056  5059     5 
 5058  5056  5059     5 
 5056  5059  5060     5 
 5056  5059  5061     5 
 5056  5059  5062     5 
 5060  5059  5061     5 
 5060  5059  5062     5 
 5061  5059  5062     5 
 5059  5062  5063     5 
 5059  5062  5064     5 
 5059  5062  5065     5 
 5063  5062  5064     5 
 5063  5062  5065     5 
 5064  5062  5065     5 
 5062  5065  5066     5 
 5062  5065  5067     5 
 5062  5065  5068     5 
 5066  5065  5067     5 
 5066  5065  5068     5 
 5067  5065  5068     5 
 5065  5068  5069     5 
 5065  5068  5070     5 
 5065  5068  5071     5 
 5069  5068  5070     5 
 5069  5068  5071     5 
 5070  5068  5071     5 
 5068  5071  5072     5 
 5068  5071  5073     5 
 5068  5071  5074     5 
 5072  5071  5073     5 
 5072  5071  5074     5 
 5073  5071  5074     5 
 5071  5074  5075     5 
 5071  5074  5076     5 
 5071  5074  5077     5 
 5075  5074  5076     5 
 5075  5074  5077     5 
 5076  5074  5077     5 
 5074  5077  5078     5 
 5074  5077  5079     5 
 5074  5077  5080     5 
 5078  5077  5079     5 
 5078  5077  5080     5 
 5079  5077  5080     5 
 5077  5080  5081     5 
 5077  5080  5082     5 
 5077  5080  5083     5 
 5081  5080  5082     5 
 5081  5080  5083     5 
 5082  5080  5083     5 
 5080  5083  5084     5 
 5080  5083  5085     5 
 5080  5083  5086     5 
 5084  5083  5085     5 
 5084  5083  5086     5 
 5085  5083  5086     5 
 5083  5086  5087     5 
 5083  5086  5088     5 
 5083  5086  5089     5 
 5087  5086  5088     5 
 5087  5086  5089     5 
 5088  5086  5089     5 
 5086  5089  5090     5 
 5086  5089  5091     5 
 5086  5089  5092     5 
 5090  5089  5091     5 
 5090  5089  5092     5 
 5091  5089  5092     5 
 5094  5093  5097     5 
 5094  5093  5101     5 
 5094  5093  5105     5 
 5097  5093  5101     5 
 5097  5093  5105     5 
 5101  5093  5105     5 
 5093  5094  5095     5 
 5093  5094  5096     5 
 5093  5094  5109     5 
 5095  5094  5096     5 
 5095  5094  5109     5 
 5096  5094  5109     5 
 5093  5097  5098     5 
 5093  5097  5099     5 
 5093  5097  5100     5 
 5098  5097  5099     5 
 5098  5097  5100     5 
 5099  5097  5100     5 
 5093  5101  5102     5 
 5093  5101  5103     5 
 5093  5101  5104     5 
 5102  5101  5103     5 
 5102  5101  5104     5 
 5103  5101  5104     5 
 5093  5105  5106     5 
 5093  5105  5107     5 
 5093  5105  5108     5 
 5106  5105  5107     5 
 5106  5105  5108     5 
 5107  5105  5108     5 
 5094  5109  5110     5 
 5094  5109  5111     5 
 5094  5109  5115     5 
 5110  5109  5111     5 
 5110  5109  5115     5 
 5111  5109  5115     5 
 5113  5112  5114     5 
 5113  5112  5115     5 
 5113  5112  5116     5 
 5114  5112  5115     5 
 5114  5112  5116     5 
 5115  5112  5116     5 
 5109  5115  5112     5 
 5112  5116  5117     5 
 5116  5117  5118     5 
 5116  5117  5119     5 
 5116  5117  5120     5 
 5118  5117  5119     5 
 5118  5117  5120     5 
 5119  5117  5120     5 
 5117  5120  5121     5 
 5117  5120  5122     5 
 5117  5120  5128     5 
 5121  5120  5122     5 
 5121  5120  5128     5 
 5122  5120  5128     5 
 5120  5122  5123     5 
 5122  5123  5124     5 
 5122  5123  5125     5 
 5124  5123  5125     5 
 5123  5125  5126     5 
 5123  5125  5127     5 
 5123  5125  5137     5 
 5126  5125  5127     5 
 5126  5125  5137     5 
 5127  5125  5137     5 
 5120  5128  5129     5 
 5120  5128  5130     5 
 5120  5128  5131     5 
 5129  5128  5130     5 
 5129  5128  5131     5 
 5130  5128  5131     5 
 5128  5131  5132     5 
 5131  5132  5133     5 
 5131  5132  5134     5 
 5133  5132  5134     5 
 5132  5134  5135     5 
 5132  5134  5136     5 
 5132  5134  5184     5 
 5135  5134  5136     5 
 5135  5134  5184     5 
 5136  5134  5184     5 
 5125  5137  5138     5 
 5125  5137  5139     5 
 5125  5137  5140     5 
 5138  5137  5139     5 
 5138  5137  5140     5 
 5139  5137  5140     5 
 5137  5140  5141     5 
 5137  5140  5142     5 
 5137  5140  5143     5 
 5141  5140  5142     5 
 5141  5140  5143     5 
 5142  5140  5143     5 
 5140  5143  5144     5 
 5140  5143  5145     5 
 5140  5143  5146     5 
 5144  5143  5145     5 
 5144  5143  5146     5 
 5145  5143  5146     5 
 5143  5146  5147     5 
 5143  5146  5148     5 
 5143  5146  5149     5 
 5147  5146  5148     5 
 5147  5146  5149     5 
 5148  5146  5149     5 
 5146  5149  5150     5 
 5146  5149  5151     5 
 5146  5149  5152     5 
 5150  5149  5151     5 
 5150  5149  5152     5 
 5151  5149  5152     5 
 5149  5152  5153     5 
 5149  5152  5154     5 
 5149  5152  5155     5 
 5153  5152  5154     5 
 5153  5152  5155     5 
 5154  5152  5155     5 
 5152  5155  5156     5 
 5152  5155  5157     5 
 5156  5155  5157     5 
 5155  5157  5158     5 
 5155  5157  5159     5 
 5158  5157  5159     5 
 5157  5159  5160     5 
 5157  5159  5161     5 
 5157  5159  5162     5 
 5160  5159  5161     5 
 5160  5159  5162     5 
 5161  5159  5162     5 
 5159  5162  5163     5 
 5159  5162  5164     5 
 5159  5162  5165     5 
 5163  5162  5164     5 
 5163  5162  5165     5 
 5164  5162  5165     5 
 5162  5165  5166     5 
 5162  5165  5167     5 
 5162  5165  5168     5 
 5166  5165  5167     5 
 5166  5165  5168     5 
 5167  5165  5168     5 
 5165  5168  5169     5 
 5165  5168  5170     5 
 5165  5168  5171     5 
 5169  5168  5170     5 
 5169  5168  5171     5 
 5170  5168  5171     5 
 5168  5171  5172     5 
 5168  5171  5173     5 
 5168  5171  5174     5 
 5172  5171  5173     5 
 5172  5171  5174     5 
 5173  5171  5174     5 
 5171  5174  5175     5 
 5171  5174  5176     5 
 5171  5174  5177     5 
 5175  5174  5176     5 
 5175  5174  5177     5 
 5176  5174  5177     5 
 5174  5177  5178     5 
 5174  5177  5179     5 
 5174  5177  5180     5 
 5178  5177  5179     5 
 5178  5177  5180     5 
 5179  5177  5180     5 
 5177  5180  5181     5 
 5177  5180  5182     5 
 5177  5180  5183     5 
 5181  5180  5182     5 
 5181  5180  5183     5 
 5182  5180  5183     5 
 5134  5184  5185     5 
 5134  5184  5186     5 
 5134  5184  5187     5 
 5185  5184  5186     5 
 5185  5184  5187     5 
 5186  5184  5187     5 
 5184  5187  5188     5 
 5184  5187  5189     5 
 5184  5187  5190     5 
 5188  5187  5189     5 
 5188  5187  5190     5 
 5189  5187  5190     5 
 5187  5190  5191     5 
 5187  5190  5192     5 
 5187  5190  5193     5 
 5191  5190  5192     5 
 5191  5190  5193     5 
 5192  5190  5193     5 
 5190  5193  5194     5 
 5190  5193  5195     5 
 5190  5193  5196     5 
 5194  5193  5195     5 
 5194  5193  5196     5 
 5195  5193  5196     5 
 5193  5196  5197     5 
 5193  5196  5198     5 
 5193  5196  5199     5 
 5197  5196  5198     5 
 5197  5196  5199     5 
 5198  5196  5199     5 
 5196  5199  5200     5 
 5196  5199  5201     5 
 5196  5199  5202     5 
 5200  5199  5201     5 
 5200  5199  5202     5 
 5201  5199  5202     5 
 5199  5202  5203     5 
 5199  5202  5204     5 
 5199  5202  5205     5 
 5203  5202  5204     5 
 5203  5202  5205     5 
 5204  5202  5205     5 
 5202  5205  5206     5 
 5202  5205  5207     5 
 5202  5205  5208     5 
 5206  5205  5207     5 
 5206  5205  5208     5 
 5207  5205  5208     5 
 5205  5208  5209     5 
 5205  5208  5210     5 
 5205  5208  5211     5 
 5209  5208  5210     5 
 5209  5208  5211     5 
 5210  5208  5211     5 
 5208  5211  5212     5 
 5208  5211  5213     5 
 5208  5211  5214     5 
 5212  5211  5213     5 
 5212  5211  5214     5 
 5213  5211  5214     5 
 5211  5214  5215     5 
 5211  5214  5216     5 
 5211  5214  5217     5 
 5215  5214  5216     5 
 5215  5214  5217     5 
 5216  5214  5217     5 
 5214  5217  5218     5 
 5214  5217  5219     5 
 5214  5217  5220     5 
 5218  5217  5219     5 
 5218  5217  5220     5 
 5219  5217  5220     5 
 5217  5220  5221     5 
 5217  5220  5222     5 
 5217  5220  5223     5 
 5221  5220  5222     5 
 5221  5220  5223     5 
 5222  5220  5223     5 
 5220  5223  5224     5 
 5220  5223  5225     5 
 5220  5223  5226     5 
 5224  5223  5225     5 
 5224  5223  5226     5 
 5225  5223  5226     5 
 5228  5227  5231     5 
 5228  5227  5235     5 
 5228  5227  5239     5 
 5231  5227  5235     5 
 5231  5227  5239     5 
 5235  5227  5239     5 
 5227  5228  5229     5 
 5227  5228  5230     5 
 5227  5228  5243     5 
 5229  5228  5230     5 
 5229  5228  5243     5 
 5230  5228  5243     5 
 5227  5231  5232     5 
 5227  5231  5233     5 
 5227  5231  5234     5 
 5232  5231  5233     5 
 5232  5231  5234     5 
 5233  5231  5234     5 
 5227  5235  5236     5 
 5227  5235  5237     5 
 5227  5235  5238     5 
 5236  5235  5237     5 
 5236  5235  5238     5 
 5237  5235  5238     5 
 5227  5239  5240     5 
 5227  5239  5241     5 
 5227  5239  5242     5 
 5240  5239  5241     5 
 5240  5239  5242     5 
 5241  5239  5242     5 
 5228  5243  5244     5 
 5228  5243  5245     5 
 5228  5243  5249     5 
 5244  5243  5245     5 
 5244  5243  5249     5 
 5245  5243  5249     5 
 5247  5246  5248     5 
 5247  5246  5249     5 
 5247  5246  5250     5 
 5248  5246  5249     5 
 5248  5246  5250     5 
 5249  5246  5250     5 
 5243  5249  5246     5 
 5246  5250  5251     5 
 5250  5251  5252     5 
 5250  5251  5253     5 
 5250  5251  5254     5 
 5252  5251  5253     5 
 5252  5251  5254     5 
 5253  5251  5254     5 
 5251  5254  5255     5 
 5251  5254  5256     5 
 5251  5254  5262     5 
 5255  5254  5256     5 
 5255  5254  5262     5 
 5256  5254  5262     5 
 5254  5256  5257     5 
 5256  5257  5258     5 
 5256  5257  5259     5 
 5258  5257  5259     5 
 5257  5259  5260     5 
 5257  5259  5261     5 
 5257  5259  5271     5 
 5260  5259  5261     5 
 5260  5259  5271     5 
 5261  5259  5271     5 
 5254  5262  5263     5 
 5254  5262  5264     5 
 5254  5262  5265     5 
 5263  5262  5264     5 
 5263  5262  5265     5 
 5264  5262  5265     5 
 5262  5265  5266     5 
 5265  5266  5267     5 
 5265  5266  5268     5 
 5267  5266  5268     5 
 5266  5268  5269     5 
 5266  5268  5270     5 
 5266  5268  5318     5 
 5269  5268  5270     5 
 5269  5268  5318     5 
 5270  5268  5318     5 
 5259  5271  5272     5 
 5259  5271  5273     5 
 5259  5271  5274     5 
 5272  5271  5273     5 
 5272  5271  5274     5 
 5273  5271  5274     5 
 5271  5274  5275     5 
 5271  5274  5276     5 
 5271  5274  5277     5 
 5275  5274  5276     5 
 5275  5274  5277     5 
 5276  5274  5277     5 
 5274  5277  5278     5 
 5274  5277  5279     5 
 5274  5277  5280     5 
 5278  5277  5279     5 
 5278  5277  5280     5 
 5279  5277  5280     5 
 5277  5280  5281     5 
 5277  5280  5282     5 
 5277  5280  5283     5 
 5281  5280  5282     5 
 5281  5280  5283     5 
 5282  5280  5283     5 
 5280  5283  5284     5 
 5280  5283  5285     5 
 5280  5283  5286     5 
 5284  5283  5285     5 
 5284  5283  5286     5 
 5285  5283  5286     5 
 5283  5286  5287     5 
 5283  5286  5288     5 
 5283  5286  5289     5 
 5287  5286  5288     5 
 5287  5286  5289     5 
 5288  5286  5289     5 
 5286  5289  5290     5 
 5286  5289  5291     5 
 5290  5289  5291     5 
 5289  5291  5292     5 
 5289  5291  5293     5 
 5292  5291  5293     5 
 5291  5293  5294     5 
 5291  5293  5295     5 
 5291  5293  5296     5 
 5294  5293  5295     5 
 5294  5293  5296     5 
 5295  5293  5296     5 
 5293  5296  5297     5 
 5293  5296  5298     5 
 5293  5296  5299     5 
 5297  5296  5298     5 
 5297  5296  5299     5 
 5298  5296  5299     5 
 5296  5299  5300     5 
 5296  5299  5301     5 
 5296  5299  5302     5 
 5300  5299  5301     5 
 5300  5299  5302     5 
 5301  5299  5302     5 
 5299  5302  5303     5 
 5299  5302  5304     5 
 5299  5302  5305     5 
 5303  5302  5304     5 
 5303  5302  5305     5 
 5304  5302  5305     5 
 5302  5305  5306     5 
 5302  5305  5307     5 
 5302  5305  5308     5 
 5306  5305  5307     5 
 5306  5305  5308     5 
 5307  5305  5308     5 
 5305  5308  5309     5 
 5305  5308  5310     5 
 5305  5308  5311     5 
 5309  5308  5310     5 
 5309  5308  5311     5 
 5310  5308  5311     5 
 5308  5311  5312     5 
 5308  5311  5313     5 
 5308  5311  5314     5 
 5312  5311  5313     5 
 5312  5311  5314     5 
 5313  5311  5314     5 
 5311  5314  5315     5 
 5311  5314  5316     5 
 5311  5314  5317     5 
 5315  5314  5316     5 
 5315  5314  5317     5 
 5316  5314  5317     5 
 5268  5318  5319     5 
 5268  5318  5320     5 
 5268  5318  5321     5 
 5319  5318  5320     5 
 5319  5318  5321     5 
 5320  5318  5321     5 
 5318  5321  5322     5 
 5318  5321  5323     5 
 5318  5321  5324     5 
 5322  5321  5323     5 
 5322  5321  5324     5 
 5323  5321  5324     5 
 5321  5324  5325     5 
 5321  5324  5326     5 
 5321  5324  5327     5 
 5325  5324  5326     5 
 5325  5324  5327     5 
 5326  5324  5327     5 
 5324  5327  5328     5 
 5324  5327  5329     5 
 5324  5327  5330     5 
 5328  5327  5329     5 
 5328  5327  5330     5 
 5329  5327  5330     5 
 5327  5330  5331     5 
 5327  5330  5332     5 
 5327  5330  5333     5 
 5331  5330  5332     5 
 5331  5330  5333     5 
 5332  5330  5333     5 
 5330  5333  5334     5 
 5330  5333  5335     5 
 5330  5333  5336     5 
 5334  5333  5335     5 
 5334  5333  5336     5 
 5335  5333  5336     5 
 5333  5336  5337     5 
 5333  5336  5338     5 
 5333  5336  5339     5 
 5337  5336  5338     5 
 5337  5336  5339     5 
 5338  5336  5339     5 
 5336  5339  5340     5 
 5336  5339  5341     5 
 5336  5339  5342     5 
 5340  5339  5341     5 
 5340  5339  5342     5 
 5341  5339  5342     5 
 5339  5342  5343     5 
 5339  5342  5344     5 
 5339  5342  5345     5 
 5343  5342  5344     5 
 5343  5342  5345     5 
 5344  5342  5345     5 
 5342  5345  5346     5 
 5342  5345  5347     5 
 5342  5345  5348     5 
 5346  5345  5347     5 
 5346  5345  5348     5 
 5347  5345  5348     5 
 5345  5348  5349     5 
 5345  5348  5350     5 
 5345  5348  5351     5 
 5349  5348  5350     5 
 5349  5348  5351     5 
 5350  5348  5351     5 
 5348  5351  5352     5 
 5348  5351  5353     5 
 5348  5351  5354     5 
 5352  5351  5353     5 
 5352  5351  5354     5 
 5353  5351  5354     5 
 5351  5354  5355     5 
 5351  5354  5356     5 
 5351  5354  5357     5 
 5355  5354  5356     5 
 5355  5354  5357     5 
 5356  5354  5357     5 
 5354  5357  5358     5 
 5354  5357  5359     5 
 5354  5357  5360     5 
 5358  5357  5359     5 
 5358  5357  5360     5 
 5359  5357  5360     5 
 5362  5361  5365     5 
 5362  5361  5369     5 
 5362  5361  5373     5 
 5365  5361  5369     5 
 5365  5361  5373     5 
 5369  5361  5373     5 
 5361  5362  5363     5 
 5361  5362  5364     5 
 5361  5362  5377     5 
 5363  5362  5364     5 
 5363  5362  5377     5 
 5364  5362  5377     5 
 5361  5365  5366     5 
 5361  5365  5367     5 
 5361  5365  5368     5 
 5366  5365  5367     5 
 5366  5365  5368     5 
 5367  5365  5368     5 
 5361  5369  5370     5 
 5361  5369  5371     5 
 5361  5369  5372     5 
 5370  5369  5371     5 
 5370  5369  5372     5 
 5371  5369  5372     5 
 5361  5373  5374     5 
 5361  5373  5375     5 
 5361  5373  5376     5 
 5374  5373  5375     5 
 5374  5373  5376     5 
 5375  5373  5376     5 
 5362  5377  5378     5 
 5362  5377  5379     5 
 5362  5377  5383     5 
 5378  5377  5379     5 
 5378  5377  5383     5 
 5379  5377  5383     5 
 5381  5380  5382     5 
 5381  5380  5383     5 
 5381  5380  5384     5 
 5382  5380  5383     5 
 5382  5380  5384     5 
 5383  5380  5384     5 
 5377  5383  5380     5 
 5380  5384  5385     5 
 5384  5385  5386     5 
 5384  5385  5387     5 
 5384  5385  5388     5 
 5386  5385  5387     5 
 5386  5385  5388     5 
 5387  5385  5388     5 
 5385  5388  5389     5 
 5385  5388  5390     5 
 5385  5388  5396     5 
 5389  5388  5390     5 
 5389  5388  5396     5 
 5390  5388  5396     5 
 5388  5390  5391     5 
 5390  5391  5392     5 
 5390  5391  5393     5 
 5392  5391  5393     5 
 5391  5393  5394     5 
 5391  5393  5395     5 
 5391  5393  5405     5 
 5394  5393  5395     5 
 5394  5393  5405     5 
 5395  5393  5405     5 
 5388  5396  5397     5 
 5388  5396  5398     5 
 5388  5396  5399     5 
 5397  5396  5398     5 
 5397  5396  5399     5 
 5398  5396  5399     5 
 5396  5399  5400     5 
 5399  5400  5401     5 
 5399  5400  5402     5 
 5401  5400  5402     5 
 5400  5402  5403     5 
 5400  5402  5404     5 
 5400  5402  5452     5 
 5403  5402  5404     5 
 5403  5402  5452     5 
 5404  5402  5452     5 
 5393  5405  5406     5 
 5393  5405  5407     5 
 5393  5405  5408     5 
 5406  5405  5407     5 
 5406  5405  5408     5 
 5407  5405  5408     5 
 5405  5408  5409     5 
 5405  5408  5410     5 
 5405  5408  5411     5 
 5409  5408  5410     5 
 5409  5408  5411     5 
 5410  5408  5411     5 
 5408  5411  5412     5 
 5408  5411  5413     5 
 5408  5411  5414     5 
 5412  5411  5413     5 
 5412  5411  5414     5 
 5413  5411  5414     5 
 5411  5414  5415     5 
 5411  5414  5416     5 
 5411  5414  5417     5 
 5415  5414  5416     5 
 5415  5414  5417     5 
 5416  5414  5417     5 
 5414  5417  5418     5 
 5414  5417  5419     5 
 5414  5417  5420     5 
 5418  5417  5419     5 
 5418  5417  5420     5 
 5419  5417  5420     5 
 5417  5420  5421     5 
 5417  5420  5422     5 
 5417  5420  5423     5 
 5421  5420  5422     5 
 5421  5420  5423     5 
 5422  5420  5423     5 
 5420  5423  5424     5 
 5420  5423  5425     5 
 5424  5423  5425     5 
 5423  5425  5426     5 
 5423  5425  5427     5 
 5426  5425  5427     5 
 5425  5427  5428     5 
 5425  5427  5429     5 
 5425  5427  5430     5 
 5428  5427  5429     5 
 5428  5427  5430     5 
 5429  5427  5430     5 
 5427  5430  5431     5 
 5427  5430  5432     5 
 5427  5430  5433     5 
 5431  5430  5432     5 
 5431  5430  5433     5 
 5432  5430  5433     5 
 5430  5433  5434     5 
 5430  5433  5435     5 
 5430  5433  5436     5 
 5434  5433  5435     5 
 5434  5433  5436     5 
 5435  5433  5436     5 
 5433  5436  5437     5 
 5433  5436  5438     5 
 5433  5436  5439     5 
 5437  5436  5438     5 
 5437  5436  5439     5 
 5438  5436  5439     5 
 5436  5439  5440     5 
 5436  5439  5441     5 
 5436  5439  5442     5 
 5440  5439  5441     5 
 5440  5439  5442     5 
 5441  5439  5442     5 
 5439  5442  5443     5 
 5439  5442  5444     5 
 5439  5442  5445     5 
 5443  5442  5444     5 
 5443  5442  5445     5 
 5444  5442  5445     5 
 5442  5445  5446     5 
 5442  5445  5447     5 
 5442  5445  5448     5 
 5446  5445  5447     5 
 5446  5445  5448     5 
 5447  5445  5448     5 
 5445  5448  5449     5 
 5445  5448  5450     5 
 5445  5448  5451     5 
 5449  5448  5450     5 
 5449  5448  5451     5 
 5450  5448  5451     5 
 5402  5452  5453     5 
 5402  5452  5454     5 
 5402  5452  5455     5 
 5453  5452  5454     5 
 5453  5452  5455     5 
 5454  5452  5455     5 
 5452  5455  5456     5 
 5452  5455  5457     5 
 5452  5455  5458     5 
 5456  5455  5457     5 
 5456  5455  5458     5 
 5457  5455  5458     5 
 5455  5458  5459     5 
 5455  5458  5460     5 
 5455  5458  5461     5 
 5459  5458  5460     5 
 5459  5458  5461     5 
 5460  5458  5461     5 
 5458  5461  5462     5 
 5458  5461  5463     5 
 5458  5461  5464     5 
 5462  5461  5463     5 
 5462  5461  5464     5 
 5463  5461  5464     5 
 5461  5464  5465     5 
 5461  5464  5466     5 
 5461  5464  5467     5 
 5465  5464  5466     5 
 5465  5464  5467     5 
 5466  5464  5467     5 
 5464  5467  5468     5 
 5464  5467  5469     5 
 5464  5467  5470     5 
 5468  5467  5469     5 
 5468  5467  5470     5 
 5469  5467  5470     5 
 5467  5470  5471     5 
 5467  5470  5472     5 
 5467  5470  5473     5 
 5471  5470  5472     5 
 5471  5470  5473     5 
 5472  5470  5473     5 
 5470  5473  5474     5 
 5470  5473  5475     5 
 5470  5473  5476     5 
 5474  5473  5475     5 
 5474  5473  5476     5 
 5475  5473  5476     5 
 5473  5476  5477     5 
 5473  5476  5478     5 
 5473  5476  5479     5 
 5477  5476  5478     5 
 5477  5476  5479     5 
 5478  5476  5479     5 
 5476  5479  5480     5 
 5476  5479  5481     5 
 5476  5479  5482     5 
 5480  5479  5481     5 
 5480  5479  5482     5 
 5481  5479  5482     5 
 5479  5482  5483     5 
 5479  5482  5484     5 
 5479  5482  5485     5 
 5483  5482  5484     5 
 5483  5482  5485     5 
 5484  5482  5485     5 
 5482  5485  5486     5 
 5482  5485  5487     5 
 5482  5485  5488     5 
 5486  5485  5487     5 
 5486  5485  5488     5 
 5487  5485  5488     5 
 5485  5488  5489     5 
 5485  5488  5490     5 
 5485  5488  5491     5 
 5489  5488  5490     5 
 5489  5488  5491     5 
 5490  5488  5491     5 
 5488  5491  5492     5 
 5488  5491  5493     5 
 5488  5491  5494     5 
 5492  5491  5493     5 
 5492  5491  5494     5 
 5493  5491  5494     5 
 5496  5495  5499     5 
 5496  5495  5503     5 
 5496  5495  5507     5 
 5499  5495  5503     5 
 5499  5495  5507     5 
 5503  5495  5507     5 
 5495  5496  5497     5 
 5495  5496  5498     5 
 5495  5496  5511     5 
 5497  5496  5498     5 
 5497  5496  5511     5 
 5498  5496  5511     5 
 5495  5499  5500     5 
 5495  5499  5501     5 
 5495  5499  5502     5 
 5500  5499  5501     5 
 5500  5499  5502     5 
 5501  5499  5502     5 
 5495  5503  5504     5 
 5495  5503  5505     5 
 5495  5503  5506     5 
 5504  5503  5505     5 
 5504  5503  5506     5 
 5505  5503  5506     5 
 5495  5507  5508     5 
 5495  5507  5509     5 
 5495  5507  5510     5 
 5508  5507  5509     5 
 5508  5507  5510     5 
 5509  5507  5510     5 
 5496  5511  5512     5 
 5496  5511  5513     5 
 5496  5511  5517     5 
 5512  5511  5513     5 
 5512  5511  5517     5 
 5513  5511  5517     5 
 5515  5514  5516     5 
 5515  5514  5517     5 
 5515  5514  5518     5 
 5516  5514  5517     5 
 5516  5514  5518     5 
 5517  5514  5518     5 
 5511  5517  5514     5 
 5514  5518  5519     5 
 5518  5519  5520     5 
 5518  5519  5521     5 
 5518  5519  5522     5 
 5520  5519  5521     5 
 5520  5519  5522     5 
 5521  5519  5522     5 
 5519  5522  5523     5 
 5519  5522  5524     5 
 5519  5522  5530     5 
 5523  5522  5524     5 
 5523  5522  5530     5 
 5524  5522  5530     5 
 5522  5524  5525     5 
 5524  5525  5526     5 
 5524  5525  5527     5 
 5526  5525  5527     5 
 5525  5527  5528     5 
 5525  5527  5529     5 
 5525  5527  5539     5 
 5528  5527  5529     5 
 5528  5527  5539     5 
 5529  5527  5539     5 
 5522  5530  5531     5 
 5522  5530  5532     5 
 5522  5530  5533     5 
 5531  5530  5532     5 
 5531  5530  5533     5 
 5532  5530  5533     5 
 5530  5533  5534     5 
 5533  5534  5535     5 
 5533  5534  5536     5 
 5535  5534  5536     5 
 5534  5536  5537     5 
 5534  5536  5538     5 
 5534  5536  5586     5 
 5537  5536  5538     5 
 5537  5536  5586     5 
 5538  5536  5586     5 
 5527  5539  5540     5 
 5527  5539  5541     5 
 5527  5539  5542     5 
 5540  5539  5541     5 
 5540  5539  5542     5 
 5541  5539  5542     5 
 5539  5542  5543     5 
 5539  5542  5544     5 
 5539  5542  5545     5 
 5543  5542  5544     5 
 5543  5542  5545     5 
 5544  5542  5545     5 
 5542  5545  5546     5 
 5542  5545  5547     5 
 5542  5545  5548     5 
 5546  5545  5547     5 
 5546  5545  5548     5 
 5547  5545  5548     5 
 5545  5548  5549     5 
 5545  5548  5550     5 
 5545  5548  5551     5 
 5549  5548  5550     5 
 5549  5548  5551     5 
 5550  5548  5551     5 
 5548  5551  5552     5 
 5548  5551  5553     5 
 5548  5551  5554     5 
 5552  5551  5553     5 
 5552  5551  5554     5 
 5553  5551  5554     5 
 5551  5554  5555     5 
 5551  5554  5556     5 
 5551  5554  5557     5 
 5555  5554  5556     5 
 5555  5554  5557     5 
 5556  5554  5557     5 
 5554  5557  5558     5 
 5554  5557  5559     5 
 5558  5557  5559     5 
 5557  5559  5560     5 
 5557  5559  5561     5 
 5560  5559  5561     5 
 5559  5561  5562     5 
 5559  5561  5563     5 
 5559  5561  5564     5 
 5562  5561  5563     5 
 5562  5561  5564     5 
 5563  5561  5564     5 
 5561  5564  5565     5 
 5561  5564  5566     5 
 5561  5564  5567     5 
 5565  5564  5566     5 
 5565  5564  5567     5 
 5566  5564  5567     5 
 5564  5567  5568     5 
 5564  5567  5569     5 
 5564  5567  5570     5 
 5568  5567  5569     5 
 5568  5567  5570     5 
 5569  5567  5570     5 
 5567  5570  5571     5 
 5567  5570  5572     5 
 5567  5570  5573     5 
 5571  5570  5572     5 
 5571  5570  5573     5 
 5572  5570  5573     5 
 5570  5573  5574     5 
 5570  5573  5575     5 
 5570  5573  5576     5 
 5574  5573  5575     5 
 5574  5573  5576     5 
 5575  5573  5576     5 
 5573  5576  5577     5 
 5573  5576  5578     5 
 5573  5576  5579     5 
 5577  5576  5578     5 
 5577  5576  5579     5 
 5578  5576  5579     5 
 5576  5579  5580     5 
 5576  5579  5581     5 
 5576  5579  5582     5 
 5580  5579  5581     5 
 5580  5579  5582     5 
 5581  5579  5582     5 
 5579  5582  5583     5 
 5579  5582  5584     5 
 5579  5582  5585     5 
 5583  5582  5584     5 
 5583  5582  5585     5 
 5584  5582  5585     5 
 5536  5586  5587     5 
 5536  5586  5588     5 
 5536  5586  5589     5 
 5587  5586  5588     5 
 5587  5586  5589     5 
 5588  5586  5589     5 
 5586  5589  5590     5 
 5586  5589  5591     5 
 5586  5589  5592     5 
 5590  5589  5591     5 
 5590  5589  5592     5 
 5591  5589  5592     5 
 5589  5592  5593     5 
 5589  5592  5594     5 
 5589  5592  5595     5 
 5593  5592  5594     5 
 5593  5592  5595     5 
 5594  5592  5595     5 
 5592  5595  5596     5 
 5592  5595  5597     5 
 5592  5595  5598     5 
 5596  5595  5597     5 
 5596  5595  5598     5 
 5597  5595  5598     5 
 5595  5598  5599     5 
 5595  5598  5600     5 
 5595  5598  5601     5 
 5599  5598  5600     5 
 5599  5598  5601     5 
 5600  5598  5601     5 
 5598  5601  5602     5 
 5598  5601  5603     5 
 5598  5601  5604     5 
 5602  5601  5603     5 
 5602  5601  5604     5 
 5603  5601  5604     5 
 5601  5604  5605     5 
 5601  5604  5606     5 
 5601  5604  5607     5 
 5605  5604  5606     5 
 5605  5604  5607     5 
 5606  5604  5607     5 
 5604  5607  5608     5 
 5604  5607  5609     5 
 5604  5607  5610     5 
 5608  5607  5609     5 
 5608  5607  5610     5 
 5609  5607  5610     5 
 5607  5610  5611     5 
 5607  5610  5612     5 
 5607  5610  5613     5 
 5611  5610  5612     5 
 5611  5610  5613     5 
 5612  5610  5613     5 
 5610  5613  5614     5 
 5610  5613  5615     5 
 5610  5613  5616     5 
 5614  5613  5615     5 
 5614  5613  5616     5 
 5615  5613  5616     5 
 5613  5616  5617     5 
 5613  5616  5618     5 
 5613  5616  5619     5 
 5617  5616  5618     5 
 5617  5616  5619     5 
 5618  5616  5619     5 
 5616  5619  5620     5 
 5616  5619  5621     5 
 5616  5619  5622     5 
 5620  5619  5621     5 
 5620  5619  5622     5 
 5621  5619  5622     5 
 5619  5622  5623     5 
 5619  5622  5624     5 
 5619  5622  5625     5 
 5623  5622  5624     5 
 5623  5622  5625     5 
 5624  5622  5625     5 
 5622  5625  5626     5 
 5622  5625  5627     5 
 5622  5625  5628     5 
 5626  5625  5627     5 
 5626  5625  5628     5 
 5627  5625  5628     5 
 5630  5629  5633     5 
 5630  5629  5637     5 
 5630  5629  5641     5 
 5633  5629  5637     5 
 5633  5629  5641     5 
 5637  5629  5641     5 
 5629  5630  5631     5 
 5629  5630  5632     5 
 5629  5630  5645     5 
 5631  5630  5632     5 
 5631  5630  5645     5 
 5632  5630  5645     5 
 5629  5633  5634     5 
 5629  5633  5635     5 
 5629  5633  5636     5 
 5634  5633  5635     5 
 5634  5633  5636     5 
 5635  5633  5636     5 
 5629  5637  5638     5 
 5629  5637  5639     5 
 5629  5637  5640     5 
 5638  5637  5639     5 
 5638  5637  5640     5 
 5639  5637  5640     5 
 5629  5641  5642     5 
 5629  5641  5643     5 
 5629  5641  5644     5 
 5642  5641  5643     5 
 5642  5641  5644     5 
 5643  5641  5644     5 
 5630  5645  5646     5 
 5630  5645  5647     5 
 5630  5645  5651     5 
 5646  5645  5647     5 
 5646  5645  5651     5 
 5647  5645  5651     5 
 5649  5648  5650     5 
 5649  5648  5651     5 
 5649  5648  5652     5 
 5650  5648  5651     5 
 5650  5648  5652     5 
 5651  5648  5652     5 
 5645  5651  5648     5 
 5648  5652  5653     5 
 5652  5653  5654     5 
 5652  5653  5655     5 
 5652  5653  5656     5 
 5654  5653  5655     5 
 5654  5653  5656     5 
 5655  5653  5656     5 
 5653  5656  5657     5 
 5653  5656  5658     5 
 5653  5656  5664     5 
 5657  5656  5658     5 
 5657  5656  5664     5 
 5658  5656  5664     5 
 5656  5658  5659     5 
 5658  5659  5660     5 
 5658  5659  5661     5 
 5660  5659  5661     5 
 5659  5661  5662     5 
 5659  5661  5663     5 
 5659  5661  5673     5 
 5662  5661  5663     5 
 5662  5661  5673     5 
 5663  5661  5673     5 
 5656  5664  5665     5 
 5656  5664  5666     5 
 5656  5664  5667     5 
 5665  5664  5666     5 
 5665  5664  5667     5 
 5666  5664  5667     5 
 5664  5667  5668     5 
 5667  5668  5669     5 
 5667  5668  5670     5 
 5669  5668  5670     5 
 5668  5670  5671     5 
 5668  5670  5672     5 
 5668  5670  5720     5 
 5671  5670  5672     5 
 5671  5670  5720     5 
 5672  5670  5720     5 
 5661  5673  5674     5 
 5661  5673  5675     5 
 5661  5673  5676     5 
 5674  5673  5675     5 
 5674  5673  5676     5 
 5675  5673  5676     5 
 5673  5676  5677     5 
 5673  5676  5678     5 
 5673  5676  5679     5 
 5677  5676  5678     5 
 5677  5676  5679     5 
 5678  5676  5679     5 
 5676  5679  5680     5 
 5676  5679  5681     5 
 5676  5679  5682     5 
 5680  5679  5681     5 
 5680  5679  5682     5 
 5681  5679  5682     5 
 5679  5682  5683     5 
 5679  5682  5684     5 
 5679  5682  5685     5 
 5683  5682  5684     5 
 5683  5682  5685     5 
 5684  5682  5685     5 
 5682  5685  5686     5 
 5682  5685  5687     5 
 5682  5685  5688     5 
 5686  5685  5687     5 
 5686  5685  5688     5 
 5687  5685  5688     5 
 5685  5688  5689     5 
 5685  5688  5690     5 
 5685  5688  5691     5 
 5689  5688  5690     5 
 5689  5688  5691     5 
 5690  5688  5691     5 
 5688  5691  5692     5 
 5688  5691  5693     5 
 5692  5691  5693     5 
 5691  5693  5694     5 
 5691  5693  5695     5 
 5694  5693  5695     5 
 5693  5695  5696     5 
 5693  5695  5697     5 
 5693  5695  5698     5 
 5696  5695  5697     5 
 5696  5695  5698     5 
 5697  5695  5698     5 
 5695  5698  5699     5 
 5695  5698  5700     5 
 5695  5698  5701     5 
 5699  5698  5700     5 
 5699  5698  5701     5 
 5700  5698  5701     5 
 5698  5701  5702     5 
 5698  5701  5703     5 
 5698  5701  5704     5 
 5702  5701  5703     5 
 5702  5701  5704     5 
 5703  5701  5704     5 
 5701  5704  5705     5 
 5701  5704  5706     5 
 5701  5704  5707     5 
 5705  5704  5706     5 
 5705  5704  5707     5 
 5706  5704  5707     5 
 5704  5707  5708     5 
 5704  5707  5709     5 
 5704  5707  5710     5 
 5708  5707  5709     5 
 5708  5707  5710     5 
 5709  5707  5710     5 
 5707  5710  5711     5 
 5707  5710  5712     5 
 5707  5710  5713     5 
 5711  5710  5712     5 
 5711  5710  5713     5 
 5712  5710  5713     5 
 5710  5713  5714     5 
 5710  5713  5715     5 
 5710  5713  5716     5 
 5714  5713  5715     5 
 5714  5713  5716     5 
 5715  5713  5716     5 
 5713  5716  5717     5 
 5713  5716  5718     5 
 5713  5716  5719     5 
 5717  5716  5718     5 
 5717  5716  5719     5 
 5718  5716  5719     5 
 5670  5720  5721     5 
 5670  5720  5722     5 
 5670  5720  5723     5 
 5721  5720  5722     5 
 5721  5720  5723     5 
 5722  5720  5723     5 
 5720  5723  5724     5 
 5720  5723  5725     5 
 5720  5723  5726     5 
 5724  5723  5725     5 
 5724  5723  5726     5 
 5725  5723  5726     5 
 5723  5726  5727     5 
 5723  5726  5728     5 
 5723  5726  5729     5 
 5727  5726  5728     5 
 5727  5726  5729     5 
 5728  5726  5729     5 
 5726  5729  5730     5 
 5726  5729  5731     5 
 5726  5729  5732     5 
 5730  5729  5731     5 
 5730  5729  5732     5 
 5731  5729  5732     5 
 5729  5732  5733     5 
 5729  5732  5734     5 
 5729  5732  5735     5 
 5733  5732  5734     5 
 5733  5732  5735     5 
 5734  5732  5735     5 
 5732  5735  5736     5 
 5732  5735  5737     5 
 5732  5735  5738     5 
 5736  5735  5737     5 
 5736  5735  5738     5 
 5737  5735  5738     5 
 5735  5738  5739     5 
 5735  5738  5740     5 
 5735  5738  5741     5 
 5739  5738  5740     5 
 5739  5738  5741     5 
 5740  5738  5741     5 
 5738  5741  5742     5 
 5738  5741  5743     5 
 5738  5741  5744     5 
 5742  5741  5743     5 
 5742  5741  5744     5 
 5743  5741  5744     5 
 5741  5744  5745     5 
 5741  5744  5746     5 
 5741  5744  5747     5 
 5745  5744  5746     5 
 5745  5744  5747     5 
 5746  5744  5747     5 
 5744  5747  5748     5 
 5744  5747  5749     5 
 5744  5747  5750     5 
 5748  5747  5749     5 
 5748  5747  5750     5 
 5749  5747  5750     5 
 5747  5750  5751     5 
 5747  5750  5752     5 
 5747  5750  5753     5 
 5751  5750  5752     5 
 5751  5750  5753     5 
 5752  5750  5753     5 
 5750  5753  5754     5 
 5750  5753  5755     5 
 5750  5753  5756     5 
 5754  5753  5755     5 
 5754  5753  5756     5 
 5755  5753  5756     5 
 5753  5756  5757     5 
 5753  5756  5758     5 
 5753  5756  5759     5 
 5757  5756  5758     5 
 5757  5756  5759     5 
 5758  5756  5759     5 
 5756  5759  5760     5 
 5756  5759  5761     5 
 5756  5759  5762     5 
 5760  5759  5761     5 
 5760  5759  5762     5 
 5761  5759  5762     5 
 5764  5763  5767     5 
 5764  5763  5771     5 
 5764  5763  5775     5 
 5767  5763  5771     5 
 5767  5763  5775     5 
 5771  5763  5775     5 
 5763  5764  5765     5 
 5763  5764  5766     5 
 5763  5764  5779     5 
 5765  5764  5766     5 
 5765  5764  5779     5 
 5766  5764  5779     5 
 5763  5767  5768     5 
 5763  5767  5769     5 
 5763  5767  5770     5 
 5768  5767  5769     5 
 5768  5767  5770     5 
 5769  5767  5770     5 
 5763  5771  5772     5 
 5763  5771  5773     5 
 5763  5771  5774     5 
 5772  5771  5773     5 
 5772  5771  5774     5 
 5773  5771  5774     5 
 5763  5775  5776     5 
 5763  5775  5777     5 
 5763  5775  5778     5 
 5776  5775  5777     5 
 5776  5775  5778     5 
 5777  5775  5778     5 
 5764  5779  5780     5 
 5764  5779  5781     5 
 5764  5779  5785     5 
 5780  5779  5781     5 
 5780  5779  5785     5 
 5781  5779  5785     5 
 5783  5782  5784     5 
 5783  5782  5785     5 
 5783  5782  5786     5 
 5784  5782  5785     5 
 5784  5782  5786     5 
 5785  5782  5786     5 
 5779  5785  5782     5 
 5782  5786  5787     5 
 5786  5787  5788     5 
 5786  5787  5789     5 
 5786  5787  5790     5 
 5788  5787  5789     5 
 5788  5787  5790     5 
 5789  5787  5790     5 
 5787  5790  5791     5 
 5787  5790  5792     5 
 5787  5790  5798     5 
 5791  5790  5792     5 
 5791  5790  5798     5 
 5792  5790  5798     5 
 5790  5792  5793     5 
 5792  5793  5794     5 
 5792  5793  5795     5 
 5794  5793  5795     5 
 5793  5795  5796     5 
 5793  5795  5797     5 
 5793  5795  5807     5 
 5796  5795  5797     5 
 5796  5795  5807     5 
 5797  5795  5807     5 
 5790  5798  5799     5 
 5790  5798  5800     5 
 5790  5798  5801     5 
 5799  5798  5800     5 
 5799  5798  5801     5 
 5800  5798  5801     5 
 5798  5801  5802     5 
 5801  5802  5803     5 
 5801  5802  5804     5 
 5803  5802  5804     5 
 5802  5804  5805     5 
 5802  5804  5806     5 
 5802  5804  5854     5 
 5805  5804  5806     5 
 5805  5804  5854     5 
 5806  5804  5854     5 
 5795  5807  5808     5 
 5795  5807  5809     5 
 5795  5807  5810     5 
 5808  5807  5809     5 
 5808  5807  5810     5 
 5809  5807  5810     5 
 5807  5810  5811     5 
 5807  5810  5812     5 
 5807  5810  5813     5 
 5811  5810  5812     5 
 5811  5810  5813     5 
 5812  5810  5813     5 
 5810  5813  5814     5 
 5810  5813  5815     5 
 5810  5813  5816     5 
 5814  5813  5815     5 
 5814  5813  5816     5 
 5815  5813  5816     5 
 5813  5816  5817     5 
 5813  5816  5818     5 
 5813  5816  5819     5 
 5817  5816  5818     5 
 5817  5816  5819     5 
 5818  5816  5819     5 
 5816  5819  5820     5 
 5816  5819  5821     5 
 5816  5819  5822     5 
 5820  5819  5821     5 
 5820  5819  5822     5 
 5821  5819  5822     5 
 5819  5822  5823     5 
 5819  5822  5824     5 
 5819  5822  5825     5 
 5823  5822  5824     5 
 5823  5822  5825     5 
 5824  5822  5825     5 
 5822  5825  5826     5 
 5822  5825  5827     5 
 5826  5825  5827     5 
 5825  5827  5828     5 
 5825  5827  5829     5 
 5828  5827  5829     5 
 5827  5829  5830     5 
 5827  5829  5831     5 
 5827  5829  5832     5 
 5830  5829  5831     5 
 5830  5829  5832     5 
 5831  5829  5832     5 
 5829  5832  5833     5 
 5829  5832  5834     5 
 5829  5832  5835     5 
 5833  5832  5834     5 
 5833  5832  5835     5 
 5834  5832  5835     5 
 5832  5835  5836     5 
 5832  5835  5837     5 
 5832  5835  5838     5 
 5836  5835  5837     5 
 5836  5835  5838     5 
 5837  5835  5838     5 
 5835  5838  5839     5 
 5835  5838  5840     5 
 5835  5838  5841     5 
 5839  5838  5840     5 
 5839  5838  5841     5 
 5840  5838  5841     5 
 5838  5841  5842     5 
 5838  5841  5843     5 
 5838  5841  5844     5 
 5842  5841  5843     5 
 5842  5841  5844     5 
 5843  5841  5844     5 
 5841  5844  5845     5 
 5841  5844  5846     5 
 5841  5844  5847     5 
 5845  5844  5846     5 
 5845  5844  5847     5 
 5846  5844  5847     5 
 5844  5847  5848     5 
 5844  5847  5849     5 
 5844  5847  5850     5 
 5848  5847  5849     5 
 5848  5847  5850     5 
 5849  5847  5850     5 
 5847  5850  5851     5 
 5847  5850  5852     5 
 5847  5850  5853     5 
 5851  5850  5852     5 
 5851  5850  5853     5 
 5852  5850  5853     5 
 5804  5854  5855     5 
 5804  5854  5856     5 
 5804  5854  5857     5 
 5855  5854  5856     5 
 5855  5854  5857     5 
 5856  5854  5857     5 
 5854  5857  5858     5 
 5854  5857  5859     5 
 5854  5857  5860     5 
 5858  5857  5859     5 
 5858  5857  5860     5 
 5859  5857  5860     5 
 5857  5860  5861     5 
 5857  5860  5862     5 
 5857  5860  5863     5 
 5861  5860  5862     5 
 5861  5860  5863     5 
 5862  5860  5863     5 
 5860  5863  5864     5 
 5860  5863  5865     5 
 5860  5863  5866     5 
 5864  5863  5865     5 
 5864  5863  5866     5 
 5865  5863  5866     5 
 5863  5866  5867     5 
 5863  5866  5868     5 
 5863  5866  5869     5 
 5867  5866  5868     5 
 5867  5866  5869     5 
 5868  5866  5869     5 
 5866  5869  5870     5 
 5866  5869  5871     5 
 5866  5869  5872     5 
 5870  5869  5871     5 
 5870  5869  5872     5 
 5871  5869  5872     5 
 5869  5872  5873     5 
 5869  5872  5874     5 
 5869  5872  5875     5 
 5873  5872  5874     5 
 5873  5872  5875     5 
 5874  5872  5875     5 
 5872  5875  5876     5 
 5872  5875  5877     5 
 5872  5875  5878     5 
 5876  5875  5877     5 
 5876  5875  5878     5 
 5877  5875  5878     5 
 5875  5878  5879     5 
 5875  5878  5880     5 
 5875  5878  5881     5 
 5879  5878  5880     5 
 5879  5878  5881     5 
 5880  5878  5881     5 
 5878  5881  5882     5 
 5878  5881  5883     5 
 5878  5881  5884     5 
 5882  5881  5883     5 
 5882  5881  5884     5 
 5883  5881  5884     5 
 5881  5884  5885     5 
 5881  5884  5886     5 
 5881  5884  5887     5 
 5885  5884  5886     5 
 5885  5884  5887     5 
 5886  5884  5887     5 
 5884  5887  5888     5 
 5884  5887  5889     5 
 5884  5887  5890     5 
 5888  5887  5889     5 
 5888  5887  5890     5 
 5889  5887  5890     5 
 5887  5890  5891     5 
 5887  5890  5892     5 
 5887  5890  5893     5 
 5891  5890  5892     5 
 5891  5890  5893     5 
 5892  5890  5893     5 
 5890  5893  5894     5 
 5890  5893  5895     5 
 5890  5893  5896     5 
 5894  5893  5895     5 
 5894  5893  5896     5 
 5895  5893  5896     5 
 5898  5897  5901     5 
 5898  5897  5905     5 
 5898  5897  5909     5 
 5901  5897  5905     5 
 5901  5897  5909     5 
 5905  5897  5909     5 
 5897  5898  5899     5 
 5897  5898  5900     5 
 5897  5898  5913     5 
 5899  5898  5900     5 
 5899  5898  5913     5 
 5900  5898  5913     5 
 5897  5901  5902     5 
 5897  5901  5903     5 
 5897  5901  5904     5 
 5902  5901  5903     5 
 5902  5901  5904     5 
 5903  5901  5904     5 
 5897  5905  5906     5 
 5897  5905  5907     5 
 5897  5905  5908     5 
 5906  5905  5907     5 
 5906  5905  5908     5 
 5907  5905  5908     5 
 5897  5909  5910     5 
 5897  5909  5911     5 
 5897  5909  5912     5 
 5910  5909  5911     5 
 5910  5909  5912     5 
 5911  5909  5912     5 
 5898  5913  5914     5 
 5898  5913  5915     5 
 5898  5913  5919     5 
 5914  5913  5915     5 
 5914  5913  5919     5 
 5915  5913  5919     5 
 5917  5916  5918     5 
 5917  5916  5919     5 
 5917  5916  5920     5 
 5918  5916  5919     5 
 5918  5916  5920     5 
 5919  5916  5920     5 
 5913  5919  5916     5 
 5916  5920  5921     5 
 5920  5921  5922     5 
 5920  5921  5923     5 
 5920  5921  5924     5 
 5922  5921  5923     5 
 5922  5921  5924     5 
 5923  5921  5924     5 
 5921  5924  5925     5 
 5921  5924  5926     5 
 5921  5924  5932     5 
 5925  5924  5926     5 
 5925  5924  5932     5 
 5926  5924  5932     5 
 5924  5926  5927     5 
 5926  5927  5928     5 
 5926  5927  5929     5 
 5928  5927  5929     5 
 5927  5929  5930     5 
 5927  5929  5931     5 
 5927  5929  5941     5 
 5930  5929  5931     5 
 5930  5929  5941     5 
 5931  5929  5941     5 
 5924  5932  5933     5 
 5924  5932  5934     5 
 5924  5932  5935     5 
 5933  5932  5934     5 
 5933  5932  5935     5 
 5934  5932  5935     5 
 5932  5935  5936     5 
 5935  5936  5937     5 
 5935  5936  5938     5 
 5937  5936  5938     5 
 5936  5938  5939     5 
 5936  5938  5940     5 
 5936  5938  5988     5 
 5939  5938  5940     5 
 5939  5938  5988     5 
 5940  5938  5988     5 
 5929  5941  5942     5 
 5929  5941  5943     5 
 5929  5941  5944     5 
 5942  5941  5943     5 
 5942  5941  5944     5 
 5943  5941  5944     5 
 5941  5944  5945     5 
 5941  5944  5946     5 
 5941  5944  5947     5 
 5945  5944  5946     5 
 5945  5944  5947     5 
 5946  5944  5947     5 
 5944  5947  5948     5 
 5944  5947  5949     5 
 5944  5947  5950     5 
 5948  5947  5949     5 
 5948  5947  5950     5 
 5949  5947  5950     5 
 5947  5950  5951     5 
 5947  5950  5952     5 
 5947  5950  5953     5 
 5951  5950  5952     5 
 5951  5950  5953     5 
 5952  5950  5953     5 
 5950  5953  5954     5 
 5950  5953  5955     5 
 5950  5953  5956     5 
 5954  5953  5955     5 
 5954  5953  5956     5 
 5955  5953  5956     5 
 5953  5956  5957     5 
 5953  5956  5958     5 
 5953  5956  5959     5 
 5957  5956  5958     5 
 5957  5956  5959     5 
 5958  5956  5959     5 
 5956  5959  5960     5 
 5956  5959  5961     5 
 5960  5959  5961     5 
 5959  5961  5962     5 
 5959  5961  5963     5 
 5962  5961  5963     5 
 5961  5963  5964     5 
 5961  5963  5965     5 
 5961  5963  5966     5 
 5964  5963  5965     5 
 5964  5963  5966     5 
 5965  5963  5966     5 
 5963  5966  5967     5 
 5963  5966  5968     5 
 5963  5966  5969     5 
 5967  5966  5968     5 
 5967  5966  5969     5 
 5968  5966  5969     5 
 5966  5969  5970     5 
 5966  5969  5971     5 
 5966  5969  5972     5 
 5970  5969  5971     5 
 5970  5969  5972     5 
 5971  5969  5972     5 
 5969  5972  5973     5 
 5969  5972  5974     5 
 5969  5972  5975     5 
 5973  5972  5974     5 
 5973  5972  5975     5 
 5974  5972  5975     5 
 5972  5975  5976     5 
 5972  5975  5977     5 
 5972  5975  5978     5 
 5976  5975  5977     5 
 5976  5975  5978     5 
 5977  5975  5978     5 
 5975  5978  5979     5 
 5975  5978  5980     5 
 5975  5978  5981     5 
 5979  5978  5980     5 
 5979  5978  5981     5 
 5980  5978  5981     5 
 5978  5981  5982     5 
 5978  5981  5983     5 
 5978  5981  5984     5 
 5982  5981  5983     5 
 5982  5981  5984     5 
 5983  5981  5984     5 
 5981  5984  5985     5 
 5981  5984  5986     5 
 5981  5984  5987     5 
 5985  5984  5986     5 
 5985  5984  5987     5 
 5986  5984  5987     5 
 5938  5988  5989     5 
 5938  5988  5990     5 
 5938  5988  5991     5 
 5989  5988  5990     5 
 5989  5988  5991     5 
 5990  5988  5991     5 
 5988  5991  5992     5 
 5988  5991  5993     5 
 5988  5991  5994     5 
 5992  5991  5993     5 
 5992  5991  5994     5 
 5993  5991  5994     5 
 5991  5994  5995     5 
 5991  5994  5996     5 
 5991  5994  5997     5 
 5995  5994  5996     5 
 5995  5994  5997     5 
 5996  5994  5997     5 
 5994  5997  5998     5 
 5994  5997  5999     5 
 5994  5997  6000     5 
 5998  5997  5999     5 
 5998  5997  6000     5 
 5999  5997  6000     5 
 5997  6000  6001     5 
 5997  6000  6002     5 
 5997  6000  6003     5 
 6001  6000  6002     5 
 6001  6000  6003     5 
 6002  6000  6003     5 
 6000  6003  6004     5 
 6000  6003  6005     5 
 6000  6003  6006     5 
 6004  6003  6005     5 
 6004  6003  6006     5 
 6005  6003  6006     5 
 6003  6006  6007     5 
 6003  6006  6008     5 
 6003  6006  6009     5 
 6007  6006  6008     5 
 6007  6006  6009     5 
 6008  6006  6009     5 
 6006  6009  6010     5 
 6006  6009  6011     5 
 6006  6009  6012     5 
 6010  6009  6011     5 
 6010  6009  6012     5 
 6011  6009  6012     5 
 6009  6012  6013     5 
 6009  6012  6014     5 
 6009  6012  6015     5 
 6013  6012  6014     5 
 6013  6012  6015     5 
 6014  6012  6015     5 
 6012  6015  6016     5 
 6012  6015  6017     5 
 6012  6015  6018     5 
 6016  6015  6017     5 
 6016  6015  6018     5 
 6017  6015  6018     5 
 6015  6018  6019     5 
 6015  6018  6020     5 
 6015  6018  6021     5 
 6019  6018  6020     5 
 6019  6018  6021     5 
 6020  6018  6021     5 
 6018  6021  6022     5 
 6018  6021  6023     5 
 6018  6021  6024     5 
 6022  6021  6023     5 
 6022  6021  6024     5 
 6023  6021  6024     5 
 6021  6024  6025     5 
 6021  6024  6026     5 
 6021  6024  6027     5 
 6025  6024  6026     5 
 6025  6024  6027     5 
 6026  6024  6027     5 
 6024  6027  6028     5 
 6024  6027  6029     5 
 6024  6027  6030     5 
 6028  6027  6029     5 
 6028  6027  6030     5 
 6029  6027  6030     5 
 6032  6031  6035     5 
 6032  6031  6039     5 
 6032  6031  6043     5 
 6035  6031  6039     5 
 6035  6031  6043     5 
 6039  6031  6043     5 
 6031  6032  6033     5 
 6031  6032  6034     5 
 6031  6032  6047     5 
 6033  6032  6034     5 
 6033  6032  6047     5 
 6034  6032  6047     5 
 6031  6035  6036     5 
 6031  6035  6037     5 
 6031  6035  6038     5 
 6036  6035  6037     5 
 6036  6035  6038     5 
 6037  6035  6038     5 
 6031  6039  6040     5 
 6031  6039  6041     5 
 6031  6039  6042     5 
 6040  6039  6041     5 
 6040  6039  6042     5 
 6041  6039  6042     5 
 6031  6043  6044     5 
 6031  6043  6045     5 
 6031  6043  6046     5 
 6044  6043  6045     5 
 6044  6043  6046     5 
 6045  6043  6046     5 
 6032  6047  6048     5 
 6032  6047  6049     5 
 6032  6047  6053     5 
 6048  6047  6049     5 
 6048  6047  6053     5 
 6049  6047  6053     5 
 6051  6050  6052     5 
 6051  6050  6053     5 
 6051  6050  6054     5 
 6052  6050  6053     5 
 6052  6050  6054     5 
 6053  6050  6054     5 
 6047  6053  6050     5 
 6050  6054  6055     5 
 6054  6055  6056     5 
 6054  6055  6057     5 
 6054  6055  6058     5 
 6056  6055  6057     5 
 6056  6055  6058     5 
 6057  6055  6058     5 
 6055  6058  6059     5 
 6055  6058  6060     5 
 6055  6058  6066     5 
 6059  6058  6060     5 
 6059  6058  6066     5 
 6060  6058  6066     5 
 6058  6060  6061     5 
 6060  6061  6062     5 
 6060  6061  6063     5 
 6062  6061  6063     5 
 6061  6063  6064     5 
 6061  6063  6065     5 
 6061  6063  6075     5 
 6064  6063  6065     5 
 6064  6063  6075     5 
 6065  6063  6075     5 
 6058  6066  6067     5 
 6058  6066  6068     5 
 6058  6066  6069     5 
 6067  6066  6068     5 
 6067  6066  6069     5 
 6068  6066  6069     5 
 6066  6069  6070     5 
 6069  6070  6071     5 
 6069  6070  6072     5 
 6071  6070  6072     5 
 6070  6072  6073     5 
 6070  6072  6074     5 
 6070  6072  6122     5 
 6073  6072  6074     5 
 6073  6072  6122     5 
 6074  6072  6122     5 
 6063  6075  6076     5 
 6063  6075  6077     5 
 6063  6075  6078     5 
 6076  6075  6077     5 
 6076  6075  6078     5 
 6077  6075  6078     5 
 6075  6078  6079     5 
 6075  6078  6080     5 
 6075  6078  6081     5 
 6079  6078  6080     5 
 6079  6078  6081     5 
 6080  6078  6081     5 
 6078  6081  6082     5 
 6078  6081  6083     5 
 6078  6081  6084     5 
 6082  6081  6083     5 
 6082  6081  6084     5 
 6083  6081  6084     5 
 6081  6084  6085     5 
 6081  6084  6086     5 
 6081  6084  6087     5 
 6085  6084  6086     5 
 6085  6084  6087     5 
 6086  6084  6087     5 
 6084  6087  6088     5 
 6084  6087  6089     5 
 6084  6087  6090     5 
 6088  6087  6089     5 
 6088  6087  6090     5 
 6089  6087  6090     5 
 6087  6090  6091     5 
 6087  6090  6092     5 
 6087  6090  6093     5 
 6091  6090  6092     5 
 6091  6090  6093     5 
 6092  6090  6093     5 
 6090  6093  6094     5 
 6090  6093  6095     5 
 6094  6093  6095     5 
 6093  6095  6096     5 
 6093  6095  6097     5 
 6096  6095  6097     5 
 6095  6097  6098     5 
 6095  6097  6099     5 
 6095  6097  6100     5 
 6098  6097  6099     5 
 6098  6097  6100     5 
 6099  6097  6100     5 
 6097  6100  6101     5 
 6097  6100  6102     5 
 6097  6100  6103     5 
 6101  6100  6102     5 
 6101  6100  6103     5 
 6102  6100  6103     5 
 6100  6103  6104     5 
 6100  6103  6105     5 
 6100  6103  6106     5 
 6104  6103  6105     5 
 6104  6103  6106     5 
 6105  6103  6106     5 
 6103  6106  6107     5 
 6103  6106  6108     5 
 6103  6106  6109     5 
 6107  6106  6108     5 
 6107  6106  6109     5 
 6108  6106  6109     5 
 6106  6109  6110     5 
 6106  6109  6111     5 
 6106  6109  6112     5 
 6110  6109  6111     5 
 6110  6109  6112     5 
 6111  6109  6112     5 
 6109  6112  6113     5 
 6109  6112  6114     5 
 6109  6112  6115     5 
 6113  6112  6114     5 
 6113  6112  6115     5 
 6114  6112  6115     5 
 6112  6115  6116     5 
 6112  6115  6117     5 
 6112  6115  6118     5 
 6116  6115  6117     5 
 6116  6115  6118     5 
 6117  6115  6118     5 
 6115  6118  6119     5 
 6115  6118  6120     5 
 6115  6118  6121     5 
 6119  6118  6120     5 
 6119  6118  6121     5 
 6120  6118  6121     5 
 6072  6122  6123     5 
 6072  6122  6124     5 
 6072  6122  6125     5 
 6123  6122  6124     5 
 6123  6122  6125     5 
 6124  6122  6125     5 
 6122  6125  6126     5 
 6122  6125  6127     5 
 6122  6125  6128     5 
 6126  6125  6127     5 
 6126  6125  6128     5 
 6127  6125  6128     5 
 6125  6128  6129     5 
 6125  6128  6130     5 
 6125  6128  6131     5 
 6129  6128  6130     5 
 6129  6128  6131     5 
 6130  6128  6131     5 
 6128  6131  6132     5 
 6128  6131  6133     5 
 6128  6131  6134     5 
 6132  6131  6133     5 
 6132  6131  6134     5 
 6133  6131  6134     5 
 6131  6134  6135     5 
 6131  6134  6136     5 
 6131  6134  6137     5 
 6135  6134  6136     5 
 6135  6134  6137     5 
 6136  6134  6137     5 
 6134  6137  6138     5 
 6134  6137  6139     5 
 6134  6137  6140     5 
 6138  6137  6139     5 
 6138  6137  6140     5 
 6139  6137  6140     5 
 6137  6140  6141     5 
 6137  6140  6142     5 
 6137  6140  6143     5 
 6141  6140  6142     5 
 6141  6140  6143     5 
 6142  6140  6143     5 
 6140  6143  6144     5 
 6140  6143  6145     5 
 6140  6143  6146     5 
 6144  6143  6145     5 
 6144  6143  6146     5 
 6145  6143  6146     5 
 6143  6146  6147     5 
 6143  6146  6148     5 
 6143  6146  6149     5 
 6147  6146  6148     5 
 6147  6146  6149     5 
 6148  6146  6149     5 
 6146  6149  6150     5 
 6146  6149  6151     5 
 6146  6149  6152     5 
 6150  6149  6151     5 
 6150  6149  6152     5 
 6151  6149  6152     5 
 6149  6152  6153     5 
 6149  6152  6154     5 
 6149  6152  6155     5 
 6153  6152  6154     5 
 6153  6152  6155     5 
 6154  6152  6155     5 
 6152  6155  6156     5 
 6152  6155  6157     5 
 6152  6155  6158     5 
 6156  6155  6157     5 
 6156  6155  6158     5 
 6157  6155  6158     5 
 6155  6158  6159     5 
 6155  6158  6160     5 
 6155  6158  6161     5 
 6159  6158  6160     5 
 6159  6158  6161     5 
 6160  6158  6161     5 
 6158  6161  6162     5 
 6158  6161  6163     5 
 6158  6161  6164     5 
 6162  6161  6163     5 
 6162  6161  6164     5 
 6163  6161  6164     5 
 6166  6165  6169     5 
 6166  6165  6173     5 
 6166  6165  6177     5 
 6169  6165  6173     5 
 6169  6165  6177     5 
 6173  6165  6177     5 
 6165  6166  6167     5 
 6165  6166  6168     5 
 6165  6166  6181     5 
 6167  6166  6168     5 
 6167  6166  6181     5 
 6168  6166  6181     5 
 6165  6169  6170     5 
 6165  6169  6171     5 
 6165  6169  6172     5 
 6170  6169  6171     5 
 6170  6169  6172     5 
 6171  6169  6172     5 
 6165  6173  6174     5 
 6165  6173  6175     5 
 6165  6173  6176     5 
 6174  6173  6175     5 
 6174  6173  6176     5 
 6175  6173  6176     5 
 6165  6177  6178     5 
 6165  6177  6179     5 
 6165  6177  6180     5 
 6178  6177  6179     5 
 6178  6177  6180     5 
 6179  6177  6180     5 
 6166  6181  6182     5 
 6166  6181  6183     5 
 6166  6181  6187     5 
 6182  6181  6183     5 
 6182  6181  6187     5 
 6183  6181  6187     5 
 6185  6184  6186     5 
 6185  6184  6187     5 
 6185  6184  6188     5 
 6186  6184  6187     5 
 6186  6184  6188     5 
 6187  6184  6188     5 
 6181  6187  6184     5 
 6184  6188  6189     5 
 6188  6189  6190     5 
 6188  6189  6191     5 
 6188  6189  6192     5 
 6190  6189  6191     5 
 6190  6189  6192     5 
 6191  6189  6192     5 
 6189  6192  6193     5 
 6189  6192  6194     5 
 6189  6192  6200     5 
 6193  6192  6194     5 
 6193  6192  6200     5 
 6194  6192  6200     5 
 6192  6194  6195     5 
 6194  6195  6196     5 
 6194  6195  6197     5 
 6196  6195  6197     5 
 6195  6197  6198     5 
 6195  6197  6199     5 
 6195  6197  6209     5 
 6198  6197  6199     5 
 6198  6197  6209     5 
 6199  6197  6209     5 
 6192  6200  6201     5 
 6192  6200  6202     5 
 6192  6200  6203     5 
 6201  6200  6202     5 
 6201  6200  6203     5 
 6202  6200  6203     5 
 6200  6203  6204     5 
 6203  6204  6205     5 
 6203  6204  6206     5 
 6205  6204  6206     5 
 6204  6206  6207     5 
 6204  6206  6208     5 
 6204  6206  6256     5 
 6207  6206  6208     5 
 6207  6206  6256     5 
 6208  6206  6256     5 
 6197  6209  6210     5 
 6197  6209  6211     5 
 6197  6209  6212     5 
 6210  6209  6211     5 
 6210  6209  6212     5 
 6211  6209  6212     5 
 6209  6212  6213     5 
 6209  6212  6214     5 
 6209  6212  6215     5 
 6213  6212  6214     5 
 6213  6212  6215     5 
 6214  6212  6215     5 
 6212  6215  6216     5 
 6212  6215  6217     5 
 6212  6215  6218     5 
 6216  6215  6217     5 
 6216  6215  6218     5 
 6217  6215  6218     5 
 6215  6218  6219     5 
 6215  6218  6220     5 
 6215  6218  6221     5 
 6219  6218  6220     5 
 6219  6218  6221     5 
 6220  6218  6221     5 
 6218  6221  6222     5 
 6218  6221  6223     5 
 6218  6221  6224     5 
 6222  6221  6223     5 
 6222  6221  6224     5 
 6223  6221  6224     5 
 6221  6224  6225     5 
 6221  6224  6226     5 
 6221  6224  6227     5 
 6225  6224  6226     5 
 6225  6224  6227     5 
 6226  6224  6227     5 
 6224  6227  6228     5 
 6224  6227  6229     5 
 6228  6227  6229     5 
 6227  6229  6230     5 
 6227  6229  6231     5 
 6230  6229  6231     5 
 6229  6231  6232     5 
 6229  6231  6233     5 
 6229  6231  6234     5 
 6232  6231  6233     5 
 6232  6231  6234     5 
 6233  6231  6234     5 
 6231  6234  6235     5 
 6231  6234  6236     5 
 6231  6234  6237     5 
 6235  6234  6236     5 
 6235  6234  6237     5 
 6236  6234  6237     5 
 6234  6237  6238     5 
 6234  6237  6239     5 
 6234  6237  6240     5 
 6238  6237  6239     5 
 6238  6237  6240     5 
 6239  6237  6240     5 
 6237  6240  6241     5 
 6237  6240  6242     5 
 6237  6240  6243     5 
 6241  6240  6242     5 
 6241  6240  6243     5 
 6242  6240  6243     5 
 6240  6243  6244     5 
 6240  6243  6245     5 
 6240  6243  6246     5 
 6244  6243  6245     5 
 6244  6243  6246     5 
 6245  6243  6246     5 
 6243  6246  6247     5 
 6243  6246  6248     5 
 6243  6246  6249     5 
 6247  6246  6248     5 
 6247  6246  6249     5 
 6248  6246  6249     5 
 6246  6249  6250     5 
 6246  6249  6251     5 
 6246  6249  6252     5 
 6250  6249  6251     5 
 6250  6249  6252     5 
 6251  6249  6252     5 
 6249  6252  6253     5 
 6249  6252  6254     5 
 6249  6252  6255     5 
 6253  6252  6254     5 
 6253  6252  6255     5 
 6254  6252  6255     5 
 6206  6256  6257     5 
 6206  6256  6258     5 
 6206  6256  6259     5 
 6257  6256  6258     5 
 6257  6256  6259     5 
 6258  6256  6259     5 
 6256  6259  6260     5 
 6256  6259  6261     5 
 6256  6259  6262     5 
 6260  6259  6261     5 
 6260  6259  6262     5 
 6261  6259  6262     5 
 6259  6262  6263     5 
 6259  6262  6264     5 
 6259  6262  6265     5 
 6263  6262  6264     5 
 6263  6262  6265     5 
 6264  6262  6265     5 
 6262  6265  6266     5 
 6262  6265  6267     5 
 6262  6265  6268     5 
 6266  6265  6267     5 
 6266  6265  6268     5 
 6267  6265  6268     5 
 6265  6268  6269     5 
 6265  6268  6270     5 
 6265  6268  6271     5 
 6269  6268  6270     5 
 6269  6268  6271     5 
 6270  6268  6271     5 
 6268  6271  6272     5 
 6268  6271  6273     5 
 6268  6271  6274     5 
 6272  6271  6273     5 
 6272  6271  6274     5 
 6273  6271  6274     5 
 6271  6274  6275     5 
 6271  6274  6276     5 
 6271  6274  6277     5 
 6275  6274  6276     5 
 6275  6274  6277     5 
 6276  6274  6277     5 
 6274  6277  6278     5 
 6274  6277  6279     5 
 6274  6277  6280     5 
 6278  6277  6279     5 
 6278  6277  6280     5 
 6279  6277  6280     5 
 6277  6280  6281     5 
 6277  6280  6282     5 
 6277  6280  6283     5 
 6281  6280  6282     5 
 6281  6280  6283     5 
 6282  6280  6283     5 
 6280  6283  6284     5 
 6280  6283  6285     5 
 6280  6283  6286     5 
 6284  6283  6285     5 
 6284  6283  6286     5 
 6285  6283  6286     5 
 6283  6286  6287     5 
 6283  6286  6288     5 
 6283  6286  6289     5 
 6287  6286  6288     5 
 6287  6286  6289     5 
 6288  6286  6289     5 
 6286  6289  6290     5 
 6286  6289  6291     5 
 6286  6289  6292     5 
 6290  6289  6291     5 
 6290  6289  6292     5 
 6291  6289  6292     5 
 6289  6292  6293     5 
 6289  6292  6294     5 
 6289  6292  6295     5 
 6293  6292  6294     5 
 6293  6292  6295     5 
 6294  6292  6295     5 
 6292  6295  6296     5 
 6292  6295  6297     5 
 6292  6295  6298     5 
 6296  6295  6297     5 
 6296  6295  6298     5 
 6297  6295  6298     5 
 6300  6299  6303     5 
 6300  6299  6307     5 
 6300  6299  6311     5 
 6303  6299  6307     5 
 6303  6299  6311     5 
 6307  6299  6311     5 
 6299  6300  6301     5 
 6299  6300  6302     5 
 6299  6300  6315     5 
 6301  6300  6302     5 
 6301  6300  6315     5 
 6302  6300  6315     5 
 6299  6303  6304     5 
 6299  6303  6305     5 
 6299  6303  6306     5 
 6304  6303  6305     5 
 6304  6303  6306     5 
 6305  6303  6306     5 
 6299  6307  6308     5 
 6299  6307  6309     5 
 6299  6307  6310     5 
 6308  6307  6309     5 
 6308  6307  6310     5 
 6309  6307  6310     5 
 6299  6311  6312     5 
 6299  6311  6313     5 
 6299  6311  6314     5 
 6312  6311  6313     5 
 6312  6311  6314     5 
 6313  6311  6314     5 
 6300  6315  6316     5 
 6300  6315  6317     5 
 6300  6315  6321     5 
 6316  6315  6317     5 
 6316  6315  6321     5 
 6317  6315  6321     5 
 6319  6318  6320     5 
 6319  6318  6321     5 
 6319  6318  6322     5 
 6320  6318  6321     5 
 6320  6318  6322     5 
 6321  6318  6322     5 
 6315  6321  6318     5 
 6318  6322  6323     5 
 6322  6323  6324     5 
 6322  6323  6325     5 
 6322  6323  6326     5 
 6324  6323  6325     5 
 6324  6323  6326     5 
 6325  6323  6326     5 
 6323  6326  6327     5 
 6323  6326  6328     5 
 6323  6326  6334     5 
 6327  6326  6328     5 
 6327  6326  6334     5 
 6328  6326  6334     5 
 6326  6328  6329     5 
 6328  6329  6330     5 
 6328  6329  6331     5 
 6330  6329  6331     5 
 6329  6331  6332     5 
 6329  6331  6333     5 
 6329  6331  6343     5 
 6332  6331  6333     5 
 6332  6331  6343     5 
 6333  6331  6343     5 
 6326  6334  6335     5 
 6326  6334  6336     5 
 6326  6334  6337     5 
 6335  6334  6336     5 
 6335  6334  6337     5 
 6336  6334  6337     5 
 6334  6337  6338     5 
 6337  6338  6339     5 
 6337  6338  6340     5 
 6339  6338  6340     5 
 6338  6340  6341     5 
 6338  6340  6342     5 
 6338  6340  6390     5 
 6341  6340  6342     5 
 6341  6340  6390     5 
 6342  6340  6390     5 
 6331  6343  6344     5 
 6331  6343  6345     5 
 6331  6343  6346     5 
 6344  6343  6345     5 
 6344  6343  6346     5 
 6345  6343  6346     5 
 6343  6346  6347     5 
 6343  6346  6348     5 
 6343  6346  6349     5 
 6347  6346  6348     5 
 6347  6346  6349     5 
 6348  6346  6349     5 
 6346  6349  6350     5 
 6346  6349  6351     5 
 6346  6349  6352     5 
 6350  6349  6351     5 
 6350  6349  6352     5 
 6351  6349  6352     5 
 6349  6352  6353     5 
 6349  6352  6354     5 
 6349  6352  6355     5 
 6353  6352  6354     5 
 6353  6352  6355     5 
 6354  6352  6355     5 
 6352  6355  6356     5 
 6352  6355  6357     5 
 6352  6355  6358     5 
 6356  6355  6357     5 
 6356  6355  6358     5 
 6357  6355  6358     5 
 6355  6358  6359     5 
 6355  6358  6360     5 
 6355  6358  6361     5 
 6359  6358  6360     5 
 6359  6358  6361     5 
 6360  6358  6361     5 
 6358  6361  6362     5 
 6358  6361  6363     5 
 6362  6361  6363     5 
 6361  6363  6364     5 
 6361  6363  6365     5 
 6364  6363  6365     5 
 6363  6365  6366     5 
 6363  6365  6367     5 
 6363  6365  6368     5 
 6366  6365  6367     5 
 6366  6365  6368     5 
 6367  6365  6368     5 
 6365  6368  6369     5 
 6365  6368  6370     5 
 6365  6368  6371     5 
 6369  6368  6370     5 
 6369  6368  6371     5 
 6370  6368  6371     5 
 6368  6371  6372     5 
 6368  6371  6373     5 
 6368  6371  6374     5 
 6372  6371  6373     5 
 6372  6371  6374     5 
 6373  6371  6374     5 
 6371  6374  6375     5 
 6371  6374  6376     5 
 6371  6374  6377     5 
 6375  6374  6376     5 
 6375  6374  6377     5 
 6376  6374  6377     5 
 6374  6377  6378     5 
 6374  6377  6379     5 
 6374  6377  6380     5 
 6378  6377  6379     5 
 6378  6377  6380     5 
 6379  6377  6380     5 
 6377  6380  6381     5 
 6377  6380  6382     5 
 6377  6380  6383     5 
 6381  6380  6382     5 
 6381  6380  6383     5 
 6382  6380  6383     5 
 6380  6383  6384     5 
 6380  6383  6385     5 
 6380  6383  6386     5 
 6384  6383  6385     5 
 6384  6383  6386     5 
 6385  6383  6386     5 
 6383  6386  6387     5 
 6383  6386  6388     5 
 6383  6386  6389     5 
 6387  6386  6388     5 
 6387  6386  6389     5 
 6388  6386  6389     5 
 6340  6390  6391     5 
 6340  6390  6392     5 
 6340  6390  6393     5 
 6391  6390  6392     5 
 6391  6390  6393     5 
 6392  6390  6393     5 
 6390  6393  6394     5 
 6390  6393  6395     5 
 6390  6393  6396     5 
 6394  6393  6395     5 
 6394  6393  6396     5 
 6395  6393  6396     5 
 6393  6396  6397     5 
 6393  6396  6398     5 
 6393  6396  6399     5 
 6397  6396  6398     5 
 6397  6396  6399     5 
 6398  6396  6399     5 
 6396  6399  6400     5 
 6396  6399  6401     5 
 6396  6399  6402     5 
 6400  6399  6401     5 
 6400  6399  6402     5 
 6401  6399  6402     5 
 6399  6402  6403     5 
 6399  6402  6404     5 
 6399  6402  6405     5 
 6403  6402  6404     5 
 6403  6402  6405     5 
 6404  6402  6405     5 
 6402  6405  6406     5 
 6402  6405  6407     5 
 6402  6405  6408     5 
 6406  6405  6407     5 
 6406  6405  6408     5 
 6407  6405  6408     5 
 6405  6408  6409     5 
 6405  6408  6410     5 
 6405  6408  6411     5 
 6409  6408  6410     5 
 6409  6408  6411     5 
 6410  6408  6411     5 
 6408  6411  6412     5 
 6408  6411  6413     5 
 6408  6411  6414     5 
 6412  6411  6413     5 
 6412  6411  6414     5 
 6413  6411  6414     5 
 6411  6414  6415     5 
 6411  6414  6416     5 
 6411  6414  6417     5 
 6415  6414  6416     5 
 6415  6414  6417     5 
 6416  6414  6417     5 
 6414  6417  6418     5 
 6414  6417  6419     5 
 6414  6417  6420     5 
 6418  6417  6419     5 
 6418  6417  6420     5 
 6419  6417  6420     5 
 6417  6420  6421     5 
 6417  6420  6422     5 
 6417  6420  6423     5 
 6421  6420  6422     5 
 6421  6420  6423     5 
 6422  6420  6423     5 
 6420  6423  6424     5 
 6420  6423  6425     5 
 6420  6423  6426     5 
 6424  6423  6425     5 
 6424  6423  6426     5 
 6425  6423  6426     5 
 6423  6426  6427     5 
 6423  6426  6428     5 
 6423  6426  6429     5 
 6427  6426  6428     5 
 6427  6426  6429     5 
 6428  6426  6429     5 
 6426  6429  6430     5 
 6426  6429  6431     5 
 6426  6429  6432     5 
 6430  6429  6431     5 
 6430  6429  6432     5 
 6431  6429  6432     5 
 6434  6433  6437     5 
 6434  6433  6441     5 
 6434  6433  6445     5 
 6437  6433  6441     5 
 6437  6433  6445     5 
 6441  6433  6445     5 
 6433  6434  6435     5 
 6433  6434  6436     5 
 6433  6434  6449     5 
 6435  6434  6436     5 
 6435  6434  6449     5 
 6436  6434  6449     5 
 6433  6437  6438     5 
 6433  6437  6439     5 
 6433  6437  6440     5 
 6438  6437  6439     5 
 6438  6437  6440     5 
 6439  6437  6440     5 
 6433  6441  6442     5 
 6433  6441  6443     5 
 6433  6441  6444     5 
 6442  6441  6443     5 
 6442  6441  6444     5 
 6443  6441  6444     5 
 6433  6445  6446     5 
 6433  6445  6447     5 
 6433  6445  6448     5 
 6446  6445  6447     5 
 6446  6445  6448     5 
 6447  6445  6448     5 
 6434  6449  6450     5 
 6434  6449  6451     5 
 6434  6449  6455     5 
 6450  6449  6451     5 
 6450  6449  6455     5 
 6451  6449  6455     5 
 6453  6452  6454     5 
 6453  6452  6455     5 
 6453  6452  6456     5 
 6454  6452  6455     5 
 6454  6452  6456     5 
 6455  6452  6456     5 
 6449  6455  6452     5 
 6452  6456  6457     5 
 6456  6457  6458     5 
 6456  6457  6459     5 
 6456  6457  6460     5 
 6458  6457  6459     5 
 6458  6457  6460     5 
 6459  6457  6460     5 
 6457  6460  6461     5 
 6457  6460  6462     5 
 6457  6460  6468     5 
 6461  6460  6462     5 
 6461  6460  6468     5 
 6462  6460  6468     5 
 6460  6462  6463     5 
 6462  6463  6464     5 
 6462  6463  6465     5 
 6464  6463  6465     5 
 6463  6465  6466     5 
 6463  6465  6467     5 
 6463  6465  6477     5 
 6466  6465  6467     5 
 6466  6465  6477     5 
 6467  6465  6477     5 
 6460  6468  6469     5 
 6460  6468  6470     5 
 6460  6468  6471     5 
 6469  6468  6470     5 
 6469  6468  6471     5 
 6470  6468  6471     5 
 6468  6471  6472     5 
 6471  6472  6473     5 
 6471  6472  6474     5 
 6473  6472  6474     5 
 6472  6474  6475     5 
 6472  6474  6476     5 
 6472  6474  6524     5 
 6475  6474  6476     5 
 6475  6474  6524     5 
 6476  6474  6524     5 
 6465  6477  6478     5 
 6465  6477  6479     5 
 6465  6477  6480     5 
 6478  6477  6479     5 
 6478  6477  6480     5 
 6479  6477  6480     5 
 6477  6480  6481     5 
 6477  6480  6482     5 
 6477  6480  6483     5 
 6481  6480  6482     5 
 6481  6480  6483     5 
 6482  6480  6483     5 
 6480  6483  6484     5 
 6480  6483  6485     5 
 6480  6483  6486     5 
 6484  6483  6485     5 
 6484  6483  6486     5 
 6485  6483  6486     5 
 6483  6486  6487     5 
 6483  6486  6488     5 
 6483  6486  6489     5 
 6487  6486  6488     5 
 6487  6486  6489     5 
 6488  6486  6489     5 
 6486  6489  6490     5 
 6486  6489  6491     5 
 6486  6489  6492     5 
 6490  6489  6491     5 
 6490  6489  6492     5 
 6491  6489  6492     5 
 6489  6492  6493     5 
 6489  6492  6494     5 
 6489  6492  6495     5 
 6493  6492  6494     5 
 6493  6492  6495     5 
 6494  6492  6495     5 
 6492  6495  6496     5 
 6492  6495  6497     5 
 6496  6495  6497     5 
 6495  6497  6498     5 
 6495  6497  6499     5 
 6498  6497  6499     5 
 6497  6499  6500     5 
 6497  6499  6501     5 
 6497  6499  6502     5 
 6500  6499  6501     5 
 6500  6499  6502     5 
 6501  6499  6502     5 
 6499  6502  6503     5 
 6499  6502  6504     5 
 6499  6502  6505     5 
 6503  6502  6504     5 
 6503  6502  6505     5 
 6504  6502  6505     5 
 6502  6505  6506     5 
 6502  6505  6507     5 
 6502  6505  6508     5 
 6506  6505  6507     5 
 6506  6505  6508     5 
 6507  6505  6508     5 
 6505  6508  6509     5 
 6505  6508  6510     5 
 6505  6508  6511     5 
 6509  6508  6510     5 
 6509  6508  6511     5 
 6510  6508  6511     5 
 6508  6511  6512     5 
 6508  6511  6513     5 
 6508  6511  6514     5 
 6512  6511  6513     5 
 6512  6511  6514     5 
 6513  6511  6514     5 
 6511  6514  6515     5 
 6511  6514  6516     5 
 6511  6514  6517     5 
 6515  6514  6516     5 
 6515  6514  6517     5 
 6516  6514  6517     5 
 6514  6517  6518     5 
 6514  6517  6519     5 
 6514  6517  6520     5 
 6518  6517  6519     5 
 6518  6517  6520     5 
 6519  6517  6520     5 
 6517  6520  6521     5 
 6517  6520  6522     5 
 6517  6520  6523     5 
 6521  6520  6522     5 
 6521  6520  6523     5 
 6522  6520  6523     5 
 6474  6524  6525     5 
 6474  6524  6526     5 
 6474  6524  6527     5 
 6525  6524  6526     5 
 6525  6524  6527     5 
 6526  6524  6527     5 
 6524  6527  6528     5 
 6524  6527  6529     5 
 6524  6527  6530     5 
 6528  6527  6529     5 
 6528  6527  6530     5 
 6529  6527  6530     5 
 6527  6530  6531     5 
 6527  6530  6532     5 
 6527  6530  6533     5 
 6531  6530  6532     5 
 6531  6530  6533     5 
 6532  6530  6533     5 
 6530  6533  6534     5 
 6530  6533  6535     5 
 6530  6533  6536     5 
 6534  6533  6535     5 
 6534  6533  6536     5 
 6535  6533  6536     5 
 6533  6536  6537     5 
 6533  6536  6538     5 
 6533  6536  6539     5 
 6537  6536  6538     5 
 6537  6536  6539     5 
 6538  6536  6539     5 
 6536  6539  6540     5 
 6536  6539  6541     5 
 6536  6539  6542     5 
 6540  6539  6541     5 
 6540  6539  6542     5 
 6541  6539  6542     5 
 6539  6542  6543     5 
 6539  6542  6544     5 
 6539  6542  6545     5 
 6543  6542  6544     5 
 6543  6542  6545     5 
 6544  6542  6545     5 
 6542  6545  6546     5 
 6542  6545  6547     5 
 6542  6545  6548     5 
 6546  6545  6547     5 
 6546  6545  6548     5 
 6547  6545  6548     5 
 6545  6548  6549     5 
 6545  6548  6550     5 
 6545  6548  6551     5 
 6549  6548  6550     5 
 6549  6548  6551     5 
 6550  6548  6551     5 
 6548  6551  6552     5 
 6548  6551  6553     5 
 6548  6551  6554     5 
 6552  6551  6553     5 
 6552  6551  6554     5 
 6553  6551  6554     5 
 6551  6554  6555     5 
 6551  6554  6556     5 
 6551  6554  6557     5 
 6555  6554  6556     5 
 6555  6554  6557     5 
 6556  6554  6557     5 
 6554  6557  6558     5 
 6554  6557  6559     5 
 6554  6557  6560     5 
 6558  6557  6559     5 
 6558  6557  6560     5 
 6559  6557  6560     5 
 6557  6560  6561     5 
 6557  6560  6562     5 
 6557  6560  6563     5 
 6561  6560  6562     5 
 6561  6560  6563     5 
 6562  6560  6563     5 
 6560  6563  6564     5 
 6560  6563  6565     5 
 6560  6563  6566     5 
 6564  6563  6565     5 
 6564  6563  6566     5 
 6565  6563  6566     5 
 6568  6567  6571     5 
 6568  6567  6575     5 
 6568  6567  6579     5 
 6571  6567  6575     5 
 6571  6567  6579     5 
 6575  6567  6579     5 
 6567  6568  6569     5 
 6567  6568  6570     5 
 6567  6568  6583     5 
 6569  6568  6570     5 
 6569  6568  6583     5 
 6570  6568  6583     5 
 6567  6571  6572     5 
 6567  6571  6573     5 
 6567  6571  6574     5 
 6572  6571  6573     5 
 6572  6571  6574     5 
 6573  6571  6574     5 
 6567  6575  6576     5 
 6567  6575  6577     5 
 6567  6575  6578     5 
 6576  6575  6577     5 
 6576  6575  6578     5 
 6577  6575  6578     5 
 6567  6579  6580     5 
 6567  6579  6581     5 
 6567  6579  6582     5 
 6580  6579  6581     5 
 6580  6579  6582     5 
 6581  6579  6582     5 
 6568  6583  6584     5 
 6568  6583  6585     5 
 6568  6583  6589     5 
 6584  6583  6585     5 
 6584  6583  6589     5 
 6585  6583  6589     5 
 6587  6586  6588     5 
 6587  6586  6589     5 
 6587  6586  6590     5 
 6588  6586  6589     5 
 6588  6586  6590     5 
 6589  6586  6590     5 
 6583  6589  6586     5 
 6586  6590  6591     5 
 6590  6591  6592     5 
 6590  6591  6593     5 
 6590  6591  6594     5 
 6592  6591  6593     5 
 6592  6591  6594     5 
 6593  6591  6594     5 
 6591  6594  6595     5 
 6591  6594  6596     5 
 6591  6594  6602     5 
 6595  6594  6596     5 
 6595  6594  6602     5 
 6596  6594  6602     5 
 6594  6596  6597     5 
 6596  6597  6598     5 
 6596  6597  6599     5 
 6598  6597  6599     5 
 6597  6599  6600     5 
 6597  6599  6601     5 
 6597  6599  6611     5 
 6600  6599  6601     5 
 6600  6599  6611     5 
 6601  6599  6611     5 
 6594  6602  6603     5 
 6594  6602  6604     5 
 6594  6602  6605     5 
 6603  6602  6604     5 
 6603  6602  6605     5 
 6604  6602  6605     5 
 6602  6605  6606     5 
 6605  6606  6607     5 
 6605  6606  6608     5 
 6607  6606  6608     5 
 6606  6608  6609     5 
 6606  6608  6610     5 
 6606  6608  6658     5 
 6609  6608  6610     5 
 6609  6608  6658     5 
 6610  6608  6658     5 
 6599  6611  6612     5 
 6599  6611  6613     5 
 6599  6611  6614     5 
 6612  6611  6613     5 
 6612  6611  6614     5 
 6613  6611  6614     5 
 6611  6614  6615     5 
 6611  6614  6616     5 
 6611  6614  6617     5 
 6615  6614  6616     5 
 6615  6614  6617     5 
 6616  6614  6617     5 
 6614  6617  6618     5 
 6614  6617  6619     5 
 6614  6617  6620     5 
 6618  6617  6619     5 
 6618  6617  6620     5 
 6619  6617  6620     5 
 6617  6620  6621     5 
 6617  6620  6622     5 
 6617  6620  6623     5 
 6621  6620  6622     5 
 6621  6620  6623     5 
 6622  6620  6623     5 
 6620  6623  6624     5 
 6620  6623  6625     5 
 6620  6623  6626     5 
 6624  6623  6625     5 
 6624  6623  6626     5 
 6625  6623  6626     5 
 6623  6626  6627     5 
 6623  6626  6628     5 
 6623  6626  6629     5 
 6627  6626  6628     5 
 6627  6626  6629     5 
 6628  6626  6629     5 
 6626  6629  6630     5 
 6626  6629  6631     5 
 6630  6629  6631     5 
 6629  6631  6632     5 
 6629  6631  6633     5 
 6632  6631  6633     5 
 6631  6633  6634     5 
 6631  6633  6635     5 
 6631  6633  6636     5 
 6634  6633  6635     5 
 6634  6633  6636     5 
 6635  6633  6636     5 
 6633  6636  6637     5 
 6633  6636  6638     5 
 6633  6636  6639     5 
 6637  6636  6638     5 
 6637  6636  6639     5 
 6638  6636  6639     5 
 6636  6639  6640     5 
 6636  6639  6641     5 
 6636  6639  6642     5 
 6640  6639  6641     5 
 6640  6639  6642     5 
 6641  6639  6642     5 
 6639  6642  6643     5 
 6639  6642  6644     5 
 6639  6642  6645     5 
 6643  6642  6644     5 
 6643  6642  6645     5 
 6644  6642  6645     5 
 6642  6645  6646     5 
 6642  6645  6647     5 
 6642  6645  6648     5 
 6646  6645  6647     5 
 6646  6645  6648     5 
 6647  6645  6648     5 
 6645  6648  6649     5 
 6645  6648  6650     5 
 6645  6648  6651     5 
 6649  6648  6650     5 
 6649  6648  6651     5 
 6650  6648  6651     5 
 6648  6651  6652     5 
 6648  6651  6653     5 
 6648  6651  6654     5 
 6652  6651  6653     5 
 6652  6651  6654     5 
 6653  6651  6654     5 
 6651  6654  6655     5 
 6651  6654  6656     5 
 6651  6654  6657     5 
 6655  6654  6656     5 
 6655  6654  6657     5 
 6656  6654  6657     5 
 6608  6658  6659     5 
 6608  6658  6660     5 
 6608  6658  6661     5 
 6659  6658  6660     5 
 6659  6658  6661     5 
 6660  6658  6661     5 
 6658  6661  6662     5 
 6658  6661  6663     5 
 6658  6661  6664     5 
 6662  6661  6663     5 
 6662  6661  6664     5 
 6663  6661  6664     5 
 6661  6664  6665     5 
 6661  6664  6666     5 
 6661  6664  6667     5 
 6665  6664  6666     5 
 6665  6664  6667     5 
 6666  6664  6667     5 
 6664  6667  6668     5 
 6664  6667  6669     5 
 6664  6667  6670     5 
 6668  6667  6669     5 
 6668  6667  6670     5 
 6669  6667  6670     5 
 6667  6670  6671     5 
 6667  6670  6672     5 
 6667  6670  6673     5 
 6671  6670  6672     5 
 6671  6670  6673     5 
 6672  6670  6673     5 
 6670  6673  6674     5 
 6670  6673  6675     5 
 6670  6673  6676     5 
 6674  6673  6675     5 
 6674  6673  6676     5 
 6675  6673  6676     5 
 6673  6676  6677     5 
 6673  6676  6678     5 
 6673  6676  6679     5 
 6677  6676  6678     5 
 6677  6676  6679     5 
 6678  6676  6679     5 
 6676  6679  6680     5 
 6676  6679  6681     5 
 6676  6679  6682     5 
 6680  6679  6681     5 
 6680  6679  6682     5 
 6681  6679  6682     5 
 6679  6682  6683     5 
 6679  6682  6684     5 
 6679  6682  6685     5 
 6683  6682  6684     5 
 6683  6682  6685     5 
 6684  6682  6685     5 
 6682  6685  6686     5 
 6682  6685  6687     5 
 6682  6685  6688     5 
 6686  6685  6687     5 
 6686  6685  6688     5 
 6687  6685  6688     5 
 6685  6688  6689     5 
 6685  6688  6690     5 
 6685  6688  6691     5 
 6689  6688  6690     5 
 6689  6688  6691     5 
 6690  6688  6691     5 
 6688  6691  6692     5 
 6688  6691  6693     5 
 6688  6691  6694     5 
 6692  6691  6693     5 
 6692  6691  6694     5 
 6693  6691  6694     5 
 6691  6694  6695     5 
 6691  6694  6696     5 
 6691  6694  6697     5 
 6695  6694  6696     5 
 6695  6694  6697     5 
 6696  6694  6697     5 
 6694  6697  6698     5 
 6694  6697  6699     5 
 6694  6697  6700     5 
 6698  6697  6699     5 
 6698  6697  6700     5 
 6699  6697  6700     5 
 6702  6701  6705     5 
 6702  6701  6709     5 
 6702  6701  6713     5 
 6705  6701  6709     5 
 6705  6701  6713     5 
 6709  6701  6713     5 
 6701  6702  6703     5 
 6701  6702  6704     5 
 6701  6702  6717     5 
 6703  6702  6704     5 
 6703  6702  6717     5 
 6704  6702  6717     5 
 6701  6705  6706     5 
 6701  6705  6707     5 
 6701  6705  6708     5 
 6706  6705  6707     5 
 6706  6705  6708     5 
 6707  6705  6708     5 
 6701  6709  6710     5 
 6701  6709  6711     5 
 6701  6709  6712     5 
 6710  6709  6711     5 
 6710  6709  6712     5 
 6711  6709  6712     5 
 6701  6713  6714     5 
 6701  6713  6715     5 
 6701  6713  6716     5 
 6714  6713  6715     5 
 6714  6713  6716     5 
 6715  6713  6716     5 
 6702  6717  6718     5 
 6702  6717  6719     5 
 6702  6717  6723     5 
 6718  6717  6719     5 
 6718  6717  6723     5 
 6719  6717  6723     5 
 6721  6720  6722     5 
 6721  6720  6723     5 
 6721  6720  6724     5 
 6722  6720  6723     5 
 6722  6720  6724     5 
 6723  6720  6724     5 
 6717  6723  6720     5 
 6720  6724  6725     5 
 6724  6725  6726     5 
 6724  6725  6727     5 
 6724  6725  6728     5 
 6726  6725  6727     5 
 6726  6725  6728     5 
 6727  6725  6728     5 
 6725  6728  6729     5 
 6725  6728  6730     5 
 6725  6728  6736     5 
 6729  6728  6730     5 
 6729  6728  6736     5 
 6730  6728  6736     5 
 6728  6730  6731     5 
 6730  6731  6732     5 
 6730  6731  6733     5 
 6732  6731  6733     5 
 6731  6733  6734     5 
 6731  6733  6735     5 
 6731  6733  6745     5 
 6734  6733  6735     5 
 6734  6733  6745     5 
 6735  6733  6745     5 
 6728  6736  6737     5 
 6728  6736  6738     5 
 6728  6736  6739     5 
 6737  6736  6738     5 
 6737  6736  6739     5 
 6738  6736  6739     5 
 6736  6739  6740     5 
 6739  6740  6741     5 
 6739  6740  6742     5 
 6741  6740  6742     5 
 6740  6742  6743     5 
 6740  6742  6744     5 
 6740  6742  6792     5 
 6743  6742  6744     5 
 6743  6742  6792     5 
 6744  6742  6792     5 
 6733  6745  6746     5 
 6733  6745  6747     5 
 6733  6745  6748     5 
 6746  6745  6747     5 
 6746  6745  6748     5 
 6747  6745  6748     5 
 6745  6748  6749     5 
 6745  6748  6750     5 
 6745  6748  6751     5 
 6749  6748  6750     5 
 6749  6748  6751     5 
 6750  6748  6751     5 
 6748  6751  6752     5 
 6748  6751  6753     5 
 6748  6751  6754     5 
 6752  6751  6753     5 
 6752  6751  6754     5 
 6753  6751  6754     5 
 6751  6754  6755     5 
 6751  6754  6756     5 
 6751  6754  6757     5 
 6755  6754  6756     5 
 6755  6754  6757     5 
 6756  6754  6757     5 
 6754  6757  6758     5 
 6754  6757  6759     5 
 6754  6757  6760     5 
 6758  6757  6759     5 
 6758  6757  6760     5 
 6759  6757  6760     5 
 6757  6760  6761     5 
 6757  6760  6762     5 
 6757  6760  6763     5 
 6761  6760  6762     5 
 6761  6760  6763     5 
 6762  6760  6763     5 
 6760  6763  6764     5 
 6760  6763  6765     5 
 6764  6763  6765     5 
 6763  6765  6766     5 
 6763  6765  6767     5 
 6766  6765  6767     5 
 6765  6767  6768     5 
 6765  6767  6769     5 
 6765  6767  6770     5 
 6768  6767  6769     5 
 6768  6767  6770     5 
 6769  6767  6770     5 
 6767  6770  6771     5 
 6767  6770  6772     5 
 6767  6770  6773     5 
 6771  6770  6772     5 
 6771  6770  6773     5 
 6772  6770  6773     5 
 6770  6773  6774     5 
 6770  6773  6775     5 
 6770  6773  6776     5 
 6774  6773  6775     5 
 6774  6773  6776     5 
 6775  6773  6776     5 
 6773  6776  6777     5 
 6773  6776  6778     5 
 6773  6776  6779     5 
 6777  6776  6778     5 
 6777  6776  6779     5 
 6778  6776  6779     5 
 6776  6779  6780     5 
 6776  6779  6781     5 
 6776  6779  6782     5 
 6780  6779  6781     5 
 6780  6779  6782     5 
 6781  6779  6782     5 
 6779  6782  6783     5 
 6779  6782  6784     5 
 6779  6782  6785     5 
 6783  6782  6784     5 
 6783  6782  6785     5 
 6784  6782  6785     5 
 6782  6785  6786     5 
 6782  6785  6787     5 
 6782  6785  6788     5 
 6786  6785  6787     5 
 6786  6785  6788     5 
 6787  6785  6788     5 
 6785  6788  6789     5 
 6785  6788  6790     5 
 6785  6788  6791     5 
 6789  6788  6790     5 
 6789  6788  6791     5 
 6790  6788  6791     5 
 6742  6792  6793     5 
 6742  6792  6794     5 
 6742  6792  6795     5 
 6793  6792  6794     5 
 6793  6792  6795     5 
 6794  6792  6795     5 
 6792  6795  6796     5 
 6792  6795  6797     5 
 6792  6795  6798     5 
 6796  6795  6797     5 
 6796  6795  6798     5 
 6797  6795  6798     5 
 6795  6798  6799     5 
 6795  6798  6800     5 
 6795  6798  6801     5 
 6799  6798  6800     5 
 6799  6798  6801     5 
 6800  6798  6801     5 
 6798  6801  6802     5 
 6798  6801  6803     5 
 6798  6801  6804     5 
 6802  6801  6803     5 
 6802  6801  6804     5 
 6803  6801  6804     5 
 6801  6804  6805     5 
 6801  6804  6806     5 
 6801  6804  6807     5 
 6805  6804  6806     5 
 6805  6804  6807     5 
 6806  6804  6807     5 
 6804  6807  6808     5 
 6804  6807  6809     5 
 6804  6807  6810     5 
 6808  6807  6809     5 
 6808  6807  6810     5 
 6809  6807  6810     5 
 6807  6810  6811     5 
 6807  6810  6812     5 
 6807  6810  6813     5 
 6811  6810  6812     5 
 6811  6810  6813     5 
 6812  6810  6813     5 
 6810  6813  6814     5 
 6810  6813  6815     5 
 6810  6813  6816     5 
 6814  6813  6815     5 
 6814  6813  6816     5 
 6815  6813  6816     5 
 6813  6816  6817     5 
 6813  6816  6818     5 
 6813  6816  6819     5 
 6817  6816  6818     5 
 6817  6816  6819     5 
 6818  6816  6819     5 
 6816  6819  6820     5 
 6816  6819  6821     5 
 6816  6819  6822     5 
 6820  6819  6821     5 
 6820  6819  6822     5 
 6821  6819  6822     5 
 6819  6822  6823     5 
 6819  6822  6824     5 
 6819  6822  6825     5 
 6823  6822  6824     5 
 6823  6822  6825     5 
 6824  6822  6825     5 
 6822  6825  6826     5 
 6822  6825  6827     5 
 6822  6825  6828     5 
 6826  6825  6827     5 
 6826  6825  6828     5 
 6827  6825  6828     5 
 6825  6828  6829     5 
 6825  6828  6830     5 
 6825  6828  6831     5 
 6829  6828  6830     5 
 6829  6828  6831     5 
 6830  6828  6831     5 
 6828  6831  6832     5 
 6828  6831  6833     5 
 6828  6831  6834     5 
 6832  6831  6833     5 
 6832  6831  6834     5 
 6833  6831  6834     5 
 6836  6835  6839     5 
 6836  6835  6843     5 
 6836  6835  6847     5 
 6839  6835  6843     5 
 6839  6835  6847     5 
 6843  6835  6847     5 
 6835  6836  6837     5 
 6835  6836  6838     5 
 6835  6836  6851     5 
 6837  6836  6838     5 
 6837  6836  6851     5 
 6838  6836  6851     5 
 6835  6839  6840     5 
 6835  6839  6841     5 
 6835  6839  6842     5 
 6840  6839  6841     5 
 6840  6839  6842     5 
 6841  6839  6842     5 
 6835  6843  6844     5 
 6835  6843  6845     5 
 6835  6843  6846     5 
 6844  6843  6845     5 
 6844  6843  6846     5 
 6845  6843  6846     5 
 6835  6847  6848     5 
 6835  6847  6849     5 
 6835  6847  6850     5 
 6848  6847  6849     5 
 6848  6847  6850     5 
 6849  6847  6850     5 
 6836  6851  6852     5 
 6836  6851  6853     5 
 6836  6851  6857     5 
 6852  6851  6853     5 
 6852  6851  6857     5 
 6853  6851  6857     5 
 6855  6854  6856     5 
 6855  6854  6857     5 
 6855  6854  6858     5 
 6856  6854  6857     5 
 6856  6854  6858     5 
 6857  6854  6858     5 
 6851  6857  6854     5 
 6854  6858  6859     5 
 6858  6859  6860     5 
 6858  6859  6861     5 
 6858  6859  6862     5 
 6860  6859  6861     5 
 6860  6859  6862     5 
 6861  6859  6862     5 
 6859  6862  6863     5 
 6859  6862  6864     5 
 6859  6862  6870     5 
 6863  6862  6864     5 
 6863  6862  6870     5 
 6864  6862  6870     5 
 6862  6864  6865     5 
 6864  6865  6866     5 
 6864  6865  6867     5 
 6866  6865  6867     5 
 6865  6867  6868     5 
 6865  6867  6869     5 
 6865  6867  6879     5 
 6868  6867  6869     5 
 6868  6867  6879     5 
 6869  6867  6879     5 
 6862  6870  6871     5 
 6862  6870  6872     5 
 6862  6870  6873     5 
 6871  6870  6872     5 
 6871  6870  6873     5 
 6872  6870  6873     5 
 6870  6873  6874     5 
 6873  6874  6875     5 
 6873  6874  6876     5 
 6875  6874  6876     5 
 6874  6876  6877     5 
 6874  6876  6878     5 
 6874  6876  6926     5 
 6877  6876  6878     5 
 6877  6876  6926     5 
 6878  6876  6926     5 
 6867  6879  6880     5 
 6867  6879  6881     5 
 6867  6879  6882     5 
 6880  6879  6881     5 
 6880  6879  6882     5 
 6881  6879  6882     5 
 6879  6882  6883     5 
 6879  6882  6884     5 
 6879  6882  6885     5 
 6883  6882  6884     5 
 6883  6882  6885     5 
 6884  6882  6885     5 
 6882  6885  6886     5 
 6882  6885  6887     5 
 6882  6885  6888     5 
 6886  6885  6887     5 
 6886  6885  6888     5 
 6887  6885  6888     5 
 6885  6888  6889     5 
 6885  6888  6890     5 
 6885  6888  6891     5 
 6889  6888  6890     5 
 6889  6888  6891     5 
 6890  6888  6891     5 
 6888  6891  6892     5 
 6888  6891  6893     5 
 6888  6891  6894     5 
 6892  6891  6893     5 
 6892  6891  6894     5 
 6893  6891  6894     5 
 6891  6894  6895     5 
 6891  6894  6896     5 
 6891  6894  6897     5 
 6895  6894  6896     5 
 6895  6894  6897     5 
 6896  6894  6897     5 
 6894  6897  6898     5 
 6894  6897  6899     5 
 6898  6897  6899     5 
 6897  6899  6900     5 
 6897  6899  6901     5 
 6900  6899  6901     5 
 6899  6901  6902     5 
 6899  6901  6903     5 
 6899  6901  6904     5 
 6902  6901  6903     5 
 6902  6901  6904     5 
 6903  6901  6904     5 
 6901  6904  6905     5 
 6901  6904  6906     5 
 6901  6904  6907     5 
 6905  6904  6906     5 
 6905  6904  6907     5 
 6906  6904  6907     5 
 6904  6907  6908     5 
 6904  6907  6909     5 
 6904  6907  6910     5 
 6908  6907  6909     5 
 6908  6907  6910     5 
 6909  6907  6910     5 
 6907  6910  6911     5 
 6907  6910  6912     5 
 6907  6910  6913     5 
 6911  6910  6912     5 
 6911  6910  6913     5 
 6912  6910  6913     5 
 6910  6913  6914     5 
 6910  6913  6915     5 
 6910  6913  6916     5 
 6914  6913  6915     5 
 6914  6913  6916     5 
 6915  6913  6916     5 
 6913  6916  6917     5 
 6913  6916  6918     5 
 6913  6916  6919     5 
 6917  6916  6918     5 
 6917  6916  6919     5 
 6918  6916  6919     5 
 6916  6919  6920     5 
 6916  6919  6921     5 
 6916  6919  6922     5 
 6920  6919  6921     5 
 6920  6919  6922     5 
 6921  6919  6922     5 
 6919  6922  6923     5 
 6919  6922  6924     5 
 6919  6922  6925     5 
 6923  6922  6924     5 
 6923  6922  6925     5 
 6924  6922  6925     5 
 6876  6926  6927     5 
 6876  6926  6928     5 
 6876  6926  6929     5 
 6927  6926  6928     5 
 6927  6926  6929     5 
 6928  6926  6929     5 
 6926  6929  6930     5 
 6926  6929  6931     5 
 6926  6929  6932     5 
 6930  6929  6931     5 
 6930  6929  6932     5 
 6931  6929  6932     5 
 6929  6932  6933     5 
 6929  6932  6934     5 
 6929  6932  6935     5 
 6933  6932  6934     5 
 6933  6932  6935     5 
 6934  6932  6935     5 
 6932  6935  6936     5 
 6932  6935  6937     5 
 6932  6935  6938     5 
 6936  6935  6937     5 
 6936  6935  6938     5 
 6937  6935  6938     5 
 6935  6938  6939     5 
 6935  6938  6940     5 
 6935  6938  6941     5 
 6939  6938  6940     5 
 6939  6938  6941     5 
 6940  6938  6941     5 
 6938  6941  6942     5 
 6938  6941  6943     5 
 6938  6941  6944     5 
 6942  6941  6943     5 
 6942  6941  6944     5 
 6943  6941  6944     5 
 6941  6944  6945     5 
 6941  6944  6946     5 
 6941  6944  6947     5 
 6945  6944  6946     5 
 6945  6944  6947     5 
 6946  6944  6947     5 
 6944  6947  6948     5 
 6944  6947  6949     5 
 6944  6947  6950     5 
 6948  6947  6949     5 
 6948  6947  6950     5 
 6949  6947  6950     5 
 6947  6950  6951     5 
 6947  6950  6952     5 
 6947  6950  6953     5 
 6951  6950  6952     5 
 6951  6950  6953     5 
 6952  6950  6953     5 
 6950  6953  6954     5 
 6950  6953  6955     5 
 6950  6953  6956     5 
 6954  6953  6955     5 
 6954  6953  6956     5 
 6955  6953  6956     5 
 6953  6956  6957     5 
 6953  6956  6958     5 
 6953  6956  6959     5 
 6957  6956  6958     5 
 6957  6956  6959     5 
 6958  6956  6959     5 
 6956  6959  6960     5 
 6956  6959  6961     5 
 6956  6959  6962     5 
 6960  6959  6961     5 
 6960  6959  6962     5 
 6961  6959  6962     5 
 6959  6962  6963     5 
 6959  6962  6964     5 
 6959  6962  6965     5 
 6963  6962  6964     5 
 6963  6962  6965     5 
 6964  6962  6965     5 
 6962  6965  6966     5 
 6962  6965  6967     5 
 6962  6965  6968     5 
 6966  6965  6967     5 
 6966  6965  6968     5 
 6967  6965  6968     5 
 6970  6969  6973     5 
 6970  6969  6977     5 
 6970  6969  6981     5 
 6973  6969  6977     5 
 6973  6969  6981     5 
 6977  6969  6981     5 
 6969  6970  6971     5 
 6969  6970  6972     5 
 6969  6970  6985     5 
 6971  6970  6972     5 
 6971  6970  6985     5 
 6972  6970  6985     5 
 6969  6973  6974     5 
 6969  6973  6975     5 
 6969  6973  6976     5 
 6974  6973  6975     5 
 6974  6973  6976     5 
 6975  6973  6976     5 
 6969  6977  6978     5 
 6969  6977  6979     5 
 6969  6977  6980     5 
 6978  6977  6979     5 
 6978  6977  6980     5 
 6979  6977  6980     5 
 6969  6981  6982     5 
 6969  6981  6983     5 
 6969  6981  6984     5 
 6982  6981  6983     5 
 6982  6981  6984     5 
 6983  6981  6984     5 
 6970  6985  6986     5 
 6970  6985  6987     5 
 6970  6985  6991     5 
 6986  6985  6987     5 
 6986  6985  6991     5 
 6987  6985  6991     5 
 6989  6988  6990     5 
 6989  6988  6991     5 
 6989  6988  6992     5 
 6990  6988  6991     5 
 6990  6988  6992     5 
 6991  6988  6992     5 
 6985  6991  6988     5 
 6988  6992  6993     5 
 6992  6993  6994     5 
 6992  6993  6995     5 
 6992  6993  6996     5 
 6994  6993  6995     5 
 6994  6993  6996     5 
 6995  6993  6996     5 
 6993  6996  6997     5 
 6993  6996  6998     5 
 6993  6996  7004     5 
 6997  6996  6998     5 
 6997  6996  7004     5 
 6998  6996  7004     5 
 6996  6998  6999     5 
 6998  6999  7000     5 
 6998  6999  7001     5 
 7000  6999  7001     5 
 6999  7001  7002     5 
 6999  7001  7003     5 
 6999  7001  7013     5 
 7002  7001  7003     5 
 7002  7001  7013     5 
 7003  7001  7013     5 
 6996  7004  7005     5 
 6996  7004  7006     5 
 6996  7004  7007     5 
 7005  7004  7006     5 
 7005  7004  7007     5 
 7006  7004  7007     5 
 7004  7007  7008     5 
 7007  7008  7009     5 
 7007  7008  7010     5 
 7009  7008  7010     5 
 7008  7010  7011     5 
 7008  7010  7012     5 
 7008  7010  7060     5 
 7011  7010  7012     5 
 7011  7010  7060     5 
 7012  7010  7060     5 
 7001  7013  7014     5 
 7001  7013  7015     5 
 7001  7013  7016     5 
 7014  7013  7015     5 
 7014  7013  7016     5 
 7015  7013  7016     5 
 7013  7016  7017     5 
 7013  7016  7018     5 
 7013  7016  7019     5 
 7017  7016  7018     5 
 7017  7016  7019     5 
 7018  7016  7019     5 
 7016  7019  7020     5 
 7016  7019  7021     5 
 7016  7019  7022     5 
 7020  7019  7021     5 
 7020  7019  7022     5 
 7021  7019  7022     5 
 7019  7022  7023     5 
 7019  7022  7024     5 
 7019  7022  7025     5 
 7023  7022  7024     5 
 7023  7022  7025     5 
 7024  7022  7025     5 
 7022  7025  7026     5 
 7022  7025  7027     5 
 7022  7025  7028     5 
 7026  7025  7027     5 
 7026  7025  7028     5 
 7027  7025  7028     5 
 7025  7028  7029     5 
 7025  7028  7030     5 
 7025  7028  7031     5 
 7029  7028  7030     5 
 7029  7028  7031     5 
 7030  7028  7031     5 
 7028  7031  7032     5 
 7028  7031  7033     5 
 7032  7031  7033     5 
 7031  7033  7034     5 
 7031  7033  7035     5 
 7034  7033  7035     5 
 7033  7035  7036     5 
 7033  7035  7037     5 
 7033  7035  7038     5 
 7036  7035  7037     5 
 7036  7035  7038     5 
 7037  7035  7038     5 
 7035  7038  7039     5 
 7035  7038  7040     5 
 7035  7038  7041     5 
 7039  7038  7040     5 
 7039  7038  7041     5 
 7040  7038  7041     5 
 7038  7041  7042     5 
 7038  7041  7043     5 
 7038  7041  7044     5 
 7042  7041  7043     5 
 7042  7041  7044     5 
 7043  7041  7044     5 
 7041  7044  7045     5 
 7041  7044  7046     5 
 7041  7044  7047     5 
 7045  7044  7046     5 
 7045  7044  7047     5 
 7046  7044  7047     5 
 7044  7047  7048     5 
 7044  7047  7049     5 
 7044  7047  7050     5 
 7048  7047  7049     5 
 7048  7047  7050     5 
 7049  7047  7050     5 
 7047  7050  7051     5 
 7047  7050  7052     5 
 7047  7050  7053     5 
 7051  7050  7052     5 
 7051  7050  7053     5 
 7052  7050  7053     5 
 7050  7053  7054     5 
 7050  7053  7055     5 
 7050  7053  7056     5 
 7054  7053  7055     5 
 7054  7053  7056     5 
 7055  7053  7056     5 
 7053  7056  7057     5 
 7053  7056  7058     5 
 7053  7056  7059     5 
 7057  7056  7058     5 
 7057  7056  7059     5 
 7058  7056  7059     5 
 7010  7060  7061     5 
 7010  7060  7062     5 
 7010  7060  7063     5 
 7061  7060  7062     5 
 7061  7060  7063     5 
 7062  7060  7063     5 
 7060  7063  7064     5 
 7060  7063  7065     5 
 7060  7063  7066     5 
 7064  7063  7065     5 
 7064  7063  7066     5 
 7065  7063  7066     5 
 7063  7066  7067     5 
 7063  7066  7068     5 
 7063  7066  7069     5 
 7067  7066  7068     5 
 7067  7066  7069     5 
 7068  7066  7069     5 
 7066  7069  7070     5 
 7066  7069  7071     5 
 7066  7069  7072     5 
 7070  7069  7071     5 
 7070  7069  7072     5 
 7071  7069  7072     5 
 7069  7072  7073     5 
 7069  7072  7074     5 
 7069  7072  7075     5 
 7073  7072  7074     5 
 7073  7072  7075     5 
 7074  7072  7075     5 
 7072  7075  7076     5 
 7072  7075  7077     5 
 7072  7075  7078     5 
 7076  7075  7077     5 
 7076  7075  7078     5 
 7077  7075  7078     5 
 7075  7078  7079     5 
 7075  7078  7080     5 
 7075  7078  7081     5 
 7079  7078  7080     5 
 7079  7078  7081     5 
 7080  7078  7081     5 
 7078  7081  7082     5 
 7078  7081  7083     5 
 7078  7081  7084     5 
 7082  7081  7083     5 
 7082  7081  7084     5 
 7083  7081  7084     5 
 7081  7084  7085     5 
 7081  7084  7086     5 
 7081  7084  7087     5 
 7085  7084  7086     5 
 7085  7084  7087     5 
 7086  7084  7087     5 
 7084  7087  7088     5 
 7084  7087  7089     5 
 7084  7087  7090     5 
 7088  7087  7089     5 
 7088  7087  7090     5 
 7089  7087  7090     5 
 7087  7090  7091     5 
 7087  7090  7092     5 
 7087  7090  7093     5 
 7091  7090  7092     5 
 7091  7090  7093     5 
 7092  7090  7093     5 
 7090  7093  7094     5 
 7090  7093  7095     5 
 7090  7093  7096     5 
 7094  7093  7095     5 
 7094  7093  7096     5 
 7095  7093  7096     5 
 7093  7096  7097     5 
 7093  7096  7098     5 
 7093  7096  7099     5 
 7097  7096  7098     5 
 7097  7096  7099     5 
 7098  7096  7099     5 
 7096  7099  7100     5 
 7096  7099  7101     5 
 7096  7099  7102     5 
 7100  7099  7101     5 
 7100  7099  7102     5 
 7101  7099  7102     5 
 7104  7103  7107     5 
 7104  7103  7111     5 
 7104  7103  7115     5 
 7107  7103  7111     5 
 7107  7103  7115     5 
 7111  7103  7115     5 
 7103  7104  7105     5 
 7103  7104  7106     5 
 7103  7104  7119     5 
 7105  7104  7106     5 
 7105  7104  7119     5 
 7106  7104  7119     5 
 7103  7107  7108     5 
 7103  7107  7109     5 
 7103  7107  7110     5 
 7108  7107  7109     5 
 7108  7107  7110     5 
 7109  7107  7110     5 
 7103  7111  7112     5 
 7103  7111  7113     5 
 7103  7111  7114     5 
 7112  7111  7113     5 
 7112  7111  7114     5 
 7113  7111  7114     5 
 7103  7115  7116     5 
 7103  7115  7117     5 
 7103  7115  7118     5 
 7116  7115  7117     5 
 7116  7115  7118     5 
 7117  7115  7118     5 
 7104  7119  7120     5 
 7104  7119  7121     5 
 7104  7119  7125     5 
 7120  7119  7121     5 
 7120  7119  7125     5 
 7121  7119  7125     5 
 7123  7122  7124     5 
 7123  7122  7125     5 
 7123  7122  7126     5 
 7124  7122  7125     5 
 7124  7122  7126     5 
 7125  7122  7126     5 
 7119  7125  7122     5 
 7122  7126  7127     5 
 7126  7127  7128     5 
 7126  7127  7129     5 
 7126  7127  7130     5 
 7128  7127  7129     5 
 7128  7127  7130     5 
 7129  7127  7130     5 
 7127  7130  7131     5 
 7127  7130  7132     5 
 7127  7130  7138     5 
 7131  7130  7132     5 
 7131  7130  7138     5 
 7132  7130  7138     5 
 7130  7132  7133     5 
 7132  7133  7134     5 
 7132  7133  7135     5 
 7134  7133  7135     5 
 7133  7135  7136     5 
 7133  7135  7137     5 
 7133  7135  7147     5 
 7136  7135  7137     5 
 7136  7135  7147     5 
 7137  7135  7147     5 
 7130  7138  7139     5 
 7130  7138  7140     5 
 7130  7138  7141     5 
 7139  7138  7140     5 
 7139  7138  7141     5 
 7140  7138  7141     5 
 7138  7141  7142     5 
 7141  7142  7143     5 
 7141  7142  7144     5 
 7143  7142  7144     5 
 7142  7144  7145     5 
 7142  7144  7146     5 
 7142  7144  7194     5 
 7145  7144  7146     5 
 7145  7144  7194     5 
 7146  7144  7194     5 
 7135  7147  7148     5 
 7135  7147  7149     5 
 7135  7147  7150     5 
 7148  7147  7149     5 
 7148  7147  7150     5 
 7149  7147  7150     5 
 7147  7150  7151     5 
 7147  7150  7152     5 
 7147  7150  7153     5 
 7151  7150  7152     5 
 7151  7150  7153     5 
 7152  7150  7153     5 
 7150  7153  7154     5 
 7150  7153  7155     5 
 7150  7153  7156     5 
 7154  7153  7155     5 
 7154  7153  7156     5 
 7155  7153  7156     5 
 7153  7156  7157     5 
 7153  7156  7158     5 
 7153  7156  7159     5 
 7157  7156  7158     5 
 7157  7156  7159     5 
 7158  7156  7159     5 
 7156  7159  7160     5 
 7156  7159  7161     5 
 7156  7159  7162     5 
 7160  7159  7161     5 
 7160  7159  7162     5 
 7161  7159  7162     5 
 7159  7162  7163     5 
 7159  7162  7164     5 
 7159  7162  7165     5 
 7163  7162  7164     5 
 7163  7162  7165     5 
 7164  7162  7165     5 
 7162  7165  7166     5 
 7162  7165  7167     5 
 7166  7165  7167     5 
 7165  7167  7168     5 
 7165  7167  7169     5 
 7168  7167  7169     5 
 7167  7169  7170     5 
 7167  7169  7171     5 
 7167  7169  7172     5 
 7170  7169  7171     5 
 7170  7169  7172     5 
 7171  7169  7172     5 
 7169  7172  7173     5 
 7169  7172  7174     5 
 7169  7172  7175     5 
 7173  7172  7174     5 
 7173  7172  7175     5 
 7174  7172  7175     5 
 7172  7175  7176     5 
 7172  7175  7177     5 
 7172  7175  7178     5 
 7176  7175  7177     5 
 7176  7175  7178     5 
 7177  7175  7178     5 
 7175  7178  7179     5 
 7175  7178  7180     5 
 7175  7178  7181     5 
 7179  7178  7180     5 
 7179  7178  7181     5 
 7180  7178  7181     5 
 7178  7181  7182     5 
 7178  7181  7183     5 
 7178  7181  7184     5 
 7182  7181  7183     5 
 7182  7181  7184     5 
 7183  7181  7184     5 
 7181  7184  7185     5 
 7181  7184  7186     5 
 7181  7184  7187     5 
 7185  7184  7186     5 
 7185  7184  7187     5 
 7186  7184  7187     5 
 7184  7187  7188     5 
 7184  7187  7189     5 
 7184  7187  7190     5 
 7188  7187  7189     5 
 7188  7187  7190     5 
 7189  7187  7190     5 
 7187  7190  7191     5 
 7187  7190  7192     5 
 7187  7190  7193     5 
 7191  7190  7192     5 
 7191  7190  7193     5 
 7192  7190  7193     5 
 7144  7194  7195     5 
 7144  7194  7196     5 
 7144  7194  7197     5 
 7195  7194  7196     5 
 7195  7194  7197     5 
 7196  7194  7197     5 
 7194  7197  7198     5 
 7194  7197  7199     5 
 7194  7197  7200     5 
 7198  7197  7199     5 
 7198  7197  7200     5 
 7199  7197  7200     5 
 7197  7200  7201     5 
 7197  7200  7202     5 
 7197  7200  7203     5 
 7201  7200  7202     5 
 7201  7200  7203     5 
 7202  7200  7203     5 
 7200  7203  7204     5 
 7200  7203  7205     5 
 7200  7203  7206     5 
 7204  7203  7205     5 
 7204  7203  7206     5 
 7205  7203  7206     5 
 7203  7206  7207     5 
 7203  7206  7208     5 
 7203  7206  7209     5 
 7207  7206  7208     5 
 7207  7206  7209     5 
 7208  7206  7209     5 
 7206  7209  7210     5 
 7206  7209  7211     5 
 7206  7209  7212     5 
 7210  7209  7211     5 
 7210  7209  7212     5 
 7211  7209  7212     5 
 7209  7212  7213     5 
 7209  7212  7214     5 
 7209  7212  7215     5 
 7213  7212  7214     5 
 7213  7212  7215     5 
 7214  7212  7215     5 
 7212  7215  7216     5 
 7212  7215  7217     5 
 7212  7215  7218     5 
 7216  7215  7217     5 
 7216  7215  7218     5 
 7217  7215  7218     5 
 7215  7218  7219     5 
 7215  7218  7220     5 
 7215  7218  7221     5 
 7219  7218  7220     5 
 7219  7218  7221     5 
 7220  7218  7221     5 
 7218  7221  7222     5 
 7218  7221  7223     5 
 7218  7221  7224     5 
 7222  7221  7223     5 
 7222  7221  7224     5 
 7223  7221  7224     5 
 7221  7224  7225     5 
 7221  7224  7226     5 
 7221  7224  7227     5 
 7225  7224  7226     5 
 7225  7224  7227     5 
 7226  7224  7227     5 
 7224  7227  7228     5 
 7224  7227  7229     5 
 7224  7227  7230     5 
 7228  7227  7229     5 
 7228  7227  7230     5 
 7229  7227  7230     5 
 7227  7230  7231     5 
 7227  7230  7232     5 
 7227  7230  7233     5 
 7231  7230  7232     5 
 7231  7230  7233     5 
 7232  7230  7233     5 
 7230  7233  7234     5 
 7230  7233  7235     5 
 7230  7233  7236     5 
 7234  7233  7235     5 
 7234  7233  7236     5 
 7235  7233  7236     5 
 7238  7237  7241     5 
 7238  7237  7245     5 
 7238  7237  7249     5 
 7241  7237  7245     5 
 7241  7237  7249     5 
 7245  7237  7249     5 
 7237  7238  7239     5 
 7237  7238  7240     5 
 7237  7238  7253     5 
 7239  7238  7240     5 
 7239  7238  7253     5 
 7240  7238  7253     5 
 7237  7241  7242     5 
 7237  7241  7243     5 
 7237  7241  7244     5 
 7242  7241  7243     5 
 7242  7241  7244     5 
 7243  7241  7244     5 
 7237  7245  7246     5 
 7237  7245  7247     5 
 7237  7245  7248     5 
 7246  7245  7247     5 
 7246  7245  7248     5 
 7247  7245  7248     5 
 7237  7249  7250     5 
 7237  7249  7251     5 
 7237  7249  7252     5 
 7250  7249  7251     5 
 7250  7249  7252     5 
 7251  7249  7252     5 
 7238  7253  7254     5 
 7238  7253  7255     5 
 7238  7253  7259     5 
 7254  7253  7255     5 
 7254  7253  7259     5 
 7255  7253  7259     5 
 7257  7256  7258     5 
 7257  7256  7259     5 
 7257  7256  7260     5 
 7258  7256  7259     5 
 7258  7256  7260     5 
 7259  7256  7260     5 
 7253  7259  7256     5 
 7256  7260  7261     5 
 7260  7261  7262     5 
 7260  7261  7263     5 
 7260  7261  7264     5 
 7262  7261  7263     5 
 7262  7261  7264     5 
 7263  7261  7264     5 
 7261  7264  7265     5 
 7261  7264  7266     5 
 7261  7264  7272     5 
 7265  7264  7266     5 
 7265  7264  7272     5 
 7266  7264  7272     5 
 7264  7266  7267     5 
 7266  7267  7268     5 
 7266  7267  7269     5 
 7268  7267  7269     5 
 7267  7269  7270     5 
 7267  7269  7271     5 
 7267  7269  7281     5 
 7270  7269  7271     5 
 7270  7269  7281     5 
 7271  7269  7281     5 
 7264  7272  7273     5 
 7264  7272  7274     5 
 7264  7272  7275     5 
 7273  7272  7274     5 
 7273  7272  7275     5 
 7274  7272  7275     5 
 7272  7275  7276     5 
 7275  7276  7277     5 
 7275  7276  7278     5 
 7277  7276  7278     5 
 7276  7278  7279     5 
 7276  7278  7280     5 
 7276  7278  7328     5 
 7279  7278  7280     5 
 7279  7278  7328     5 
 7280  7278  7328     5 
 7269  7281  7282     5 
 7269  7281  7283     5 
 7269  7281  7284     5 
 7282  7281  7283     5 
 7282  7281  7284     5 
 7283  7281  7284     5 
 7281  7284  7285     5 
 7281  7284  7286     5 
 7281  7284  7287     5 
 7285  7284  7286     5 
 7285  7284  7287     5 
 7286  7284  7287     5 
 7284  7287  7288     5 
 7284  7287  7289     5 
 7284  7287  7290     5 
 7288  7287  7289     5 
 7288  7287  7290     5 
 7289  7287  7290     5 
 7287  7290  7291     5 
 7287  7290  7292     5 
 7287  7290  7293     5 
 7291  7290  7292     5 
 7291  7290  7293     5 
 7292  7290  7293     5 
 7290  7293  7294     5 
 7290  7293  7295     5 
 7290  7293  7296     5 
 7294  7293  7295     5 
 7294  7293  7296     5 
 7295  7293  7296     5 
 7293  7296  7297     5 
 7293  7296  7298     5 
 7293  7296  7299     5 
 7297  7296  7298     5 
 7297  7296  7299     5 
 7298  7296  7299     5 
 7296  7299  7300     5 
 7296  7299  7301     5 
 7300  7299  7301     5 
 7299  7301  7302     5 
 7299  7301  7303     5 
 7302  7301  7303     5 
 7301  7303  7304     5 
 7301  7303  7305     5 
 7301  7303  7306     5 
 7304  7303  7305     5 
 7304  7303  7306     5 
 7305  7303  7306     5 
 7303  7306  7307     5 
 7303  7306  7308     5 
 7303  7306  7309     5 
 7307  7306  7308     5 
 7307  7306  7309     5 
 7308  7306  7309     5 
 7306  7309  7310     5 
 7306  7309  7311     5 
 7306  7309  7312     5 
 7310  7309  7311     5 
 7310  7309  7312     5 
 7311  7309  7312     5 
 7309  7312  7313     5 
 7309  7312  7314     5 
 7309  7312  7315     5 
 7313  7312  7314     5 
 7313  7312  7315     5 
 7314  7312  7315     5 
 7312  7315  7316     5 
 7312  7315  7317     5 
 7312  7315  7318     5 
 7316  7315  7317     5 
 7316  7315  7318     5 
 7317  7315  7318     5 
 7315  7318  7319     5 
 7315  7318  7320     5 
 7315  7318  7321     5 
 7319  7318  7320     5 
 7319  7318  7321     5 
 7320  7318  7321     5 
 7318  7321  7322     5 
 7318  7321  7323     5 
 7318  7321  7324     5 
 7322  7321  7323     5 
 7322  7321  7324     5 
 7323  7321  7324     5 
 7321  7324  7325     5 
 7321  7324  7326     5 
 7321  7324  7327     5 
 7325  7324  7326     5 
 7325  7324  7327     5 
 7326  7324  7327     5 
 7278  7328  7329     5 
 7278  7328  7330     5 
 7278  7328  7331     5 
 7329  7328  7330     5 
 7329  7328  7331     5 
 7330  7328  7331     5 
 7328  7331  7332     5 
 7328  7331  7333     5 
 7328  7331  7334     5 
 7332  7331  7333     5 
 7332  7331  7334     5 
 7333  7331  7334     5 
 7331  7334  7335     5 
 7331  7334  7336     5 
 7331  7334  7337     5 
 7335  7334  7336     5 
 7335  7334  7337     5 
 7336  7334  7337     5 
 7334  7337  7338     5 
 7334  7337  7339     5 
 7334  7337  7340     5 
 7338  7337  7339     5 
 7338  7337  7340     5 
 7339  7337  7340     5 
 7337  7340  7341     5 
 7337  7340  7342     5 
 7337  7340  7343     5 
 7341  7340  7342     5 
 7341  7340  7343     5 
 7342  7340  7343     5 
 7340  7343  7344     5 
 7340  7343  7345     5 
 7340  7343  7346     5 
 7344  7343  7345     5 
 7344  7343  7346     5 
 7345  7343  7346     5 
 7343  7346  7347     5 
 7343  7346  7348     5 
 7343  7346  7349     5 
 7347  7346  7348     5 
 7347  7346  7349     5 
 7348  7346  7349     5 
 7346  7349  7350     5 
 7346  7349  7351     5 
 7346  7349  7352     5 
 7350  7349  7351     5 
 7350  7349  7352     5 
 7351  7349  7352     5 
 7349  7352  7353     5 
 7349  7352  7354     5 
 7349  7352  7355     5 
 7353  7352  7354     5 
 7353  7352  7355     5 
 7354  7352  7355     5 
 7352  7355  7356     5 
 7352  7355  7357     5 
 7352  7355  7358     5 
 7356  7355  7357     5 
 7356  7355  7358     5 
 7357  7355  7358     5 
 7355  7358  7359     5 
 7355  7358  7360     5 
 7355  7358  7361     5 
 7359  7358  7360     5 
 7359  7358  7361     5 
 7360  7358  7361     5 
 7358  7361  7362     5 
 7358  7361  7363     5 
 7358  7361  7364     5 
 7362  7361  7363     5 
 7362  7361  7364     5 
 7363  7361  7364     5 
 7361  7364  7365     5 
 7361  7364  7366     5 
 7361  7364  7367     5 
 7365  7364  7366     5 
 7365  7364  7367     5 
 7366  7364  7367     5 
 7364  7367  7368     5 
 7364  7367  7369     5 
 7364  7367  7370     5 
 7368  7367  7369     5 
 7368  7367  7370     5 
 7369  7367  7370     5 
 7372  7371  7375     5 
 7372  7371  7379     5 
 7372  7371  7383     5 
 7375  7371  7379     5 
 7375  7371  7383     5 
 7379  7371  7383     5 
 7371  7372  7373     5 
 7371  7372  7374     5 
 7371  7372  7387     5 
 7373  7372  7374     5 
 7373  7372  7387     5 
 7374  7372  7387     5 
 7371  7375  7376     5 
 7371  7375  7377     5 
 7371  7375  7378     5 
 7376  7375  7377     5 
 7376  7375  7378     5 
 7377  7375  7378     5 
 7371  7379  7380     5 
 7371  7379  7381     5 
 7371  7379  7382     5 
 7380  7379  7381     5 
 7380  7379  7382     5 
 7381  7379  7382     5 
 7371  7383  7384     5 
 7371  7383  7385     5 
 7371  7383  7386     5 
 7384  7383  7385     5 
 7384  7383  7386     5 
 7385  7383  7386     5 
 7372  7387  7388     5 
 7372  7387  7389     5 
 7372  7387  7393     5 
 7388  7387  7389     5 
 7388  7387  7393     5 
 7389  7387  7393     5 
 7391  7390  7392     5 
 7391  7390  7393     5 
 7391  7390  7394     5 
 7392  7390  7393     5 
 7392  7390  7394     5 
 7393  7390  7394     5 
 7387  7393  7390     5 
 7390  7394  7395     5 
 7394  7395  7396     5 
 7394  7395  7397     5 
 7394  7395  7398     5 
 7396  7395  7397     5 
 7396  7395  7398     5 
 7397  7395  7398     5 
 7395  7398  7399     5 
 7395  7398  7400     5 
 7395  7398  7406     5 
 7399  7398  7400     5 
 7399  7398  7406     5 
 7400  7398  7406     5 
 7398  7400  7401     5 
 7400  7401  7402     5 
 7400  7401  7403     5 
 7402  7401  7403     5 
 7401  7403  7404     5 
 7401  7403  7405     5 
 7401  7403  7415     5 
 7404  7403  7405     5 
 7404  7403  7415     5 
 7405  7403  7415     5 
 7398  7406  7407     5 
 7398  7406  7408     5 
 7398  7406  7409     5 
 7407  7406  7408     5 
 7407  7406  7409     5 
 7408  7406  7409     5 
 7406  7409  7410     5 
 7409  7410  7411     5 
 7409  7410  7412     5 
 7411  7410  7412     5 
 7410  7412  7413     5 
 7410  7412  7414     5 
 7410  7412  7462     5 
 7413  7412  7414     5 
 7413  7412  7462     5 
 7414  7412  7462     5 
 7403  7415  7416     5 
 7403  7415  7417     5 
 7403  7415  7418     5 
 7416  7415  7417     5 
 7416  7415  7418     5 
 7417  7415  7418     5 
 7415  7418  7419     5 
 7415  7418  7420     5 
 7415  7418  7421     5 
 7419  7418  7420     5 
 7419  7418  7421     5 
 7420  7418  7421     5 
 7418  7421  7422     5 
 7418  7421  7423     5 
 7418  7421  7424     5 
 7422  7421  7423     5 
 7422  7421  7424     5 
 7423  7421  7424     5 
 7421  7424  7425     5 
 7421  7424  7426     5 
 7421  7424  7427     5 
 7425  7424  7426     5 
 7425  7424  7427     5 
 7426  7424  7427     5 
 7424  7427  7428     5 
 7424  7427  7429     5 
 7424  7427  7430     5 
 7428  7427  7429     5 
 7428  7427  7430     5 
 7429  7427  7430     5 
 7427  7430  7431     5 
 7427  7430  7432     5 
 7427  7430  7433     5 
 7431  7430  7432     5 
 7431  7430  7433     5 
 7432  7430  7433     5 
 7430  7433  7434     5 
 7430  7433  7435     5 
 7434  7433  7435     5 
 7433  7435  7436     5 
 7433  7435  7437     5 
 7436  7435  7437     5 
 7435  7437  7438     5 
 7435  7437  7439     5 
 7435  7437  7440     5 
 7438  7437  7439     5 
 7438  7437  7440     5 
 7439  7437  7440     5 
 7437  7440  7441     5 
 7437  7440  7442     5 
 7437  7440  7443     5 
 7441  7440  7442     5 
 7441  7440  7443     5 
 7442  7440  7443     5 
 7440  7443  7444     5 
 7440  7443  7445     5 
 7440  7443  7446     5 
 7444  7443  7445     5 
 7444  7443  7446     5 
 7445  7443  7446     5 
 7443  7446  7447     5 
 7443  7446  7448     5 
 7443  7446  7449     5 
 7447  7446  7448     5 
 7447  7446  7449     5 
 7448  7446  7449     5 
 7446  7449  7450     5 
 7446  7449  7451     5 
 7446  7449  7452     5 
 7450  7449  7451     5 
 7450  7449  7452     5 
 7451  7449  7452     5 
 7449  7452  7453     5 
 7449  7452  7454     5 
 7449  7452  7455     5 
 7453  7452  7454     5 
 7453  7452  7455     5 
 7454  7452  7455     5 
 7452  7455  7456     5 
 7452  7455  7457     5 
 7452  7455  7458     5 
 7456  7455  7457     5 
 7456  7455  7458     5 
 7457  7455  7458     5 
 7455  7458  7459     5 
 7455  7458  7460     5 
 7455  7458  7461     5 
 7459  7458  7460     5 
 7459  7458  7461     5 
 7460  7458  7461     5 
 7412  7462  7463     5 
 7412  7462  7464     5 
 7412  7462  7465     5 
 7463  7462  7464     5 
 7463  7462  7465     5 
 7464  7462  7465     5 
 7462  7465  7466     5 
 7462  7465  7467     5 
 7462  7465  7468     5 
 7466  7465  7467     5 
 7466  7465  7468     5 
 7467  7465  7468     5 
 7465  7468  7469     5 
 7465  7468  7470     5 
 7465  7468  7471     5 
 7469  7468  7470     5 
 7469  7468  7471     5 
 7470  7468  7471     5 
 7468  7471  7472     5 
 7468  7471  7473     5 
 7468  7471  7474     5 
 7472  7471  7473     5 
 7472  7471  7474     5 
 7473  7471  7474     5 
 7471  7474  7475     5 
 7471  7474  7476     5 
 7471  7474  7477     5 
 7475  7474  7476     5 
 7475  7474  7477     5 
 7476  7474  7477     5 
 7474  7477  7478     5 
 7474  7477  7479     5 
 7474  7477  7480     5 
 7478  7477  7479     5 
 7478  7477  7480     5 
 7479  7477  7480     5 
 7477  7480  7481     5 
 7477  7480  7482     5 
 7477  7480  7483     5 
 7481  7480  7482     5 
 7481  7480  7483     5 
 7482  7480  7483     5 
 7480  7483  7484     5 
 7480  7483  7485     5 
 7480  7483  7486     5 
 7484  7483  7485     5 
 7484  7483  7486     5 
 7485  7483  7486     5 
 7483  7486  7487     5 
 7483  7486  7488     5 
 7483  7486  7489     5 
 7487  7486  7488     5 
 7487  7486  7489     5 
 7488  7486  7489     5 
 7486  7489  7490     5 
 7486  7489  7491     5 
 7486  7489  7492     5 
 7490  7489  7491     5 
 7490  7489  7492     5 
 7491  7489  7492     5 
 7489  7492  7493     5 
 7489  7492  7494     5 
 7489  7492  7495     5 
 7493  7492  7494     5 
 7493  7492  7495     5 
 7494  7492  7495     5 
 7492  7495  7496     5 
 7492  7495  7497     5 
 7492  7495  7498     5 
 7496  7495  7497     5 
 7496  7495  7498     5 
 7497  7495  7498     5 
 7495  7498  7499     5 
 7495  7498  7500     5 
 7495  7498  7501     5 
 7499  7498  7500     5 
 7499  7498  7501     5 
 7500  7498  7501     5 
 7498  7501  7502     5 
 7498  7501  7503     5 
 7498  7501  7504     5 
 7502  7501  7503     5 
 7502  7501  7504     5 
 7503  7501  7504     5 
 7506  7505  7509     5 
 7506  7505  7513     5 
 7506  7505  7517     5 
 7509  7505  7513     5 
 7509  7505  7517     5 
 7513  7505  7517     5 
 7505  7506  7507     5 
 7505  7506  7508     5 
 7505  7506  7521     5 
 7507  7506  7508     5 
 7507  7506  7521     5 
 7508  7506  7521     5 
 7505  7509  7510     5 
 7505  7509  7511     5 
 7505  7509  7512     5 
 7510  7509  7511     5 
 7510  7509  7512     5 
 7511  7509  7512     5 
 7505  7513  7514     5 
 7505  7513  7515     5 
 7505  7513  7516     5 
 7514  7513  7515     5 
 7514  7513  7516     5 
 7515  7513  7516     5 
 7505  7517  7518     5 
 7505  7517  7519     5 
 7505  7517  7520     5 
 7518  7517  7519     5 
 7518  7517  7520     5 
 7519  7517  7520     5 
 7506  7521  7522     5 
 7506  7521  7523     5 
 7506  7521  7527     5 
 7522  7521  7523     5 
 7522  7521  7527     5 
 7523  7521  7527     5 
 7525  7524  7526     5 
 7525  7524  7527     5 
 7525  7524  7528     5 
 7526  7524  7527     5 
 7526  7524  7528     5 
 7527  7524  7528     5 
 7521  7527  7524     5 
 7524  7528  7529     5 
 7528  7529  7530     5 
 7528  7529  7531     5 
 7528  7529  7532     5 
 7530  7529  7531     5 
 7530  7529  7532     5 
 7531  7529  7532     5 
 7529  7532  7533     5 
 7529  7532  7534     5 
 7529  7532  7540     5 
 7533  7532  7534     5 
 7533  7532  7540     5 
 7534  7532  7540     5 
 7532  7534  7535     5 
 7534  7535  7536     5 
 7534  7535  7537     5 
 7536  7535  7537     5 
 7535  7537  7538     5 
 7535  7537  7539     5 
 7535  7537  7549     5 
 7538  7537  7539     5 
 7538  7537  7549     5 
 7539  7537  7549     5 
 7532  7540  7541     5 
 7532  7540  7542     5 
 7532  7540  7543     5 
 7541  7540  7542     5 
 7541  7540  7543     5 
 7542  7540  7543     5 
 7540  7543  7544     5 
 7543  7544  7545     5 
 7543  7544  7546     5 
 7545  7544  7546     5 
 7544  7546  7547     5 
 7544  7546  7548     5 
 7544  7546  7596     5 
 7547  7546  7548     5 
 7547  7546  7596     5 
 7548  7546  7596     5 
 7537  7549  7550     5 
 7537  7549  7551     5 
 7537  7549  7552     5 
 7550  7549  7551     5 
 7550  7549  7552     5 
 7551  7549  7552     5 
 7549  7552  7553     5 
 7549  7552  7554     5 
 7549  7552  7555     5 
 7553  7552  7554     5 
 7553  7552  7555     5 
 7554  7552  7555     5 
 7552  7555  7556     5 
 7552  7555  7557     5 
 7552  7555  7558     5 
 7556  7555  7557     5 
 7556  7555  7558     5 
 7557  7555  7558     5 
 7555  7558  7559     5 
 7555  7558  7560     5 
 7555  7558  7561     5 
 7559  7558  7560     5 
 7559  7558  7561     5 
 7560  7558  7561     5 
 7558  7561  7562     5 
 7558  7561  7563     5 
 7558  7561  7564     5 
 7562  7561  7563     5 
 7562  7561  7564     5 
 7563  7561  7564     5 
 7561  7564  7565     5 
 7561  7564  7566     5 
 7561  7564  7567     5 
 7565  7564  7566     5 
 7565  7564  7567     5 
 7566  7564  7567     5 
 7564  7567  7568     5 
 7564  7567  7569     5 
 7568  7567  7569     5 
 7567  7569  7570     5 
 7567  7569  7571     5 
 7570  7569  7571     5 
 7569  7571  7572     5 
 7569  7571  7573     5 
 7569  7571  7574     5 
 7572  7571  7573     5 
 7572  7571  7574     5 
 7573  7571  7574     5 
 7571  7574  7575     5 
 7571  7574  7576     5 
 7571  7574  7577     5 
 7575  7574  7576     5 
 7575  7574  7577     5 
 7576  7574  7577     5 
 7574  7577  7578     5 
 7574  7577  7579     5 
 7574  7577  7580     5 
 7578  7577  7579     5 
 7578  7577  7580     5 
 7579  7577  7580     5 
 7577  7580  7581     5 
 7577  7580  7582     5 
 7577  7580  7583     5 
 7581  7580  7582     5 
 7581  7580  7583     5 
 7582  7580  7583     5 
 7580  7583  7584     5 
 7580  7583  7585     5 
 7580  7583  7586     5 
 7584  7583  7585     5 
 7584  7583  7586     5 
 7585  7583  7586     5 
 7583  7586  7587     5 
 7583  7586  7588     5 
 7583  7586  7589     5 
 7587  7586  7588     5 
 7587  7586  7589     5 
 7588  7586  7589     5 
 7586  7589  7590     5 
 7586  7589  7591     5 
 7586  7589  7592     5 
 7590  7589  7591     5 
 7590  7589  7592     5 
 7591  7589  7592     5 
 7589  7592  7593     5 
 7589  7592  7594     5 
 7589  7592  7595     5 
 7593  7592  7594     5 
 7593  7592  7595     5 
 7594  7592  7595     5 
 7546  7596  7597     5 
 7546  7596  7598     5 
 7546  7596  7599     5 
 7597  7596  7598     5 
 7597  7596  7599     5 
 7598  7596  7599     5 
 7596  7599  7600     5 
 7596  7599  7601     5 
 7596  7599  7602     5 
 7600  7599  7601     5 
 7600  7599  7602     5 
 7601  7599  7602     5 
 7599  7602  7603     5 
 7599  7602  7604     5 
 7599  7602  7605     5 
 7603  7602  7604     5 
 7603  7602  7605     5 
 7604  7602  7605     5 
 7602  7605  7606     5 
 7602  7605  7607     5 
 7602  7605  7608     5 
 7606  7605  7607     5 
 7606  7605  7608     5 
 7607  7605  7608     5 
 7605  7608  7609     5 
 7605  7608  7610     5 
 7605  7608  7611     5 
 7609  7608  7610     5 
 7609  7608  7611     5 
 7610  7608  7611     5 
 7608  7611  7612     5 
 7608  7611  7613     5 
 7608  7611  7614     5 
 7612  7611  7613     5 
 7612  7611  7614     5 
 7613  7611  7614     5 
 7611  7614  7615     5 
 7611  7614  7616     5 
 7611  7614  7617     5 
 7615  7614  7616     5 
 7615  7614  7617     5 
 7616  7614  7617     5 
 7614  7617  7618     5 
 7614  7617  7619     5 
 7614  7617  7620     5 
 7618  7617  7619     5 
 7618  7617  7620     5 
 7619  7617  7620     5 
 7617  7620  7621     5 
 7617  7620  7622     5 
 7617  7620  7623     5 
 7621  7620  7622     5 
 7621  7620  7623     5 
 7622  7620  7623     5 
 7620  7623  7624     5 
 7620  7623  7625     5 
 7620  7623  7626     5 
 7624  7623  7625     5 
 7624  7623  7626     5 
 7625  7623  7626     5 
 7623  7626  7627     5 
 7623  7626  7628     5 
 7623  7626  7629     5 
 7627  7626  7628     5 
 7627  7626  7629     5 
 7628  7626  7629     5 
 7626  7629  7630     5 
 7626  7629  7631     5 
 7626  7629  7632     5 
 7630  7629  7631     5 
 7630  7629  7632     5 
 7631  7629  7632     5 
 7629  7632  7633     5 
 7629  7632  7634     5 
 7629  7632  7635     5 
 7633  7632  7634     5 
 7633  7632  7635     5 
 7634  7632  7635     5 
 7632  7635  7636     5 
 7632  7635  7637     5 
 7632  7635  7638     5 
 7636  7635  7637     5 
 7636  7635  7638     5 
 7637  7635  7638     5 
 7640  7639  7643     5 
 7640  7639  7647     5 
 7640  7639  7651     5 
 7643  7639  7647     5 
 7643  7639  7651     5 
 7647  7639  7651     5 
 7639  7640  7641     5 
 7639  7640  7642     5 
 7639  7640  7655     5 
 7641  7640  7642     5 
 7641  7640  7655     5 
 7642  7640  7655     5 
 7639  7643  7644     5 
 7639  7643  7645     5 
 7639  7643  7646     5 
 7644  7643  7645     5 
 7644  7643  7646     5 
 7645  7643  7646     5 
 7639  7647  7648     5 
 7639  7647  7649     5 
 7639  7647  7650     5 
 7648  7647  7649     5 
 7648  7647  7650     5 
 7649  7647  7650     5 
 7639  7651  7652     5 
 7639  7651  7653     5 
 7639  7651  7654     5 
 7652  7651  7653     5 
 7652  7651  7654     5 
 7653  7651  7654     5 
 7640  7655  7656     5 
 7640  7655  7657     5 
 7640  7655  7661     5 
 7656  7655  7657     5 
 7656  7655  7661     5 
 7657  7655  7661     5 
 7659  7658  7660     5 
 7659  7658  7661     5 
 7659  7658  7662     5 
 7660  7658  7661     5 
 7660  7658  7662     5 
 7661  7658  7662     5 
 7655  7661  7658     5 
 7658  7662  7663     5 
 7662  7663  7664     5 
 7662  7663  7665     5 
 7662  7663  7666     5 
 7664  7663  7665     5 
 7664  7663  7666     5 
 7665  7663  7666     5 
 7663  7666  7667     5 
 7663  7666  7668     5 
 7663  7666  7674     5 
 7667  7666  7668     5 
 7667  7666  7674     5 
 7668  7666  7674     5 
 7666  7668  7669     5 
 7668  7669  7670     5 
 7668  7669  7671     5 
 7670  7669  7671     5 
 7669  7671  7672     5 
 7669  7671  7673     5 
 7669  7671  7683     5 
 7672  7671  7673     5 
 7672  7671  7683     5 
 7673  7671  7683     5 
 7666  7674  7675     5 
 7666  7674  7676     5 
 7666  7674  7677     5 
 7675  7674  7676     5 
 7675  7674  7677     5 
 7676  7674  7677     5 
 7674  7677  7678     5 
 7677  7678  7679     5 
 7677  7678  7680     5 
 7679  7678  7680     5 
 7678  7680  7681     5 
 7678  7680  7682     5 
 7678  7680  7730     5 
 7681  7680  7682     5 
 7681  7680  7730     5 
 7682  7680  7730     5 
 7671  7683  7684     5 
 7671  7683  7685     5 
 7671  7683  7686     5 
 7684  7683  7685     5 
 7684  7683  7686     5 
 7685  7683  7686     5 
 7683  7686  7687     5 
 7683  7686  7688     5 
 7683  7686  7689     5 
 7687  7686  7688     5 
 7687  7686  7689     5 
 7688  7686  7689     5 
 7686  7689  7690     5 
 7686  7689  7691     5 
 7686  7689  7692     5 
 7690  7689  7691     5 
 7690  7689  7692     5 
 7691  7689  7692     5 
 7689  7692  7693     5 
 7689  7692  7694     5 
 7689  7692  7695     5 
 7693  7692  7694     5 
 7693  7692  7695     5 
 7694  7692  7695     5 
 7692  7695  7696     5 
 7692  7695  7697     5 
 7692  7695  7698     5 
 7696  7695  7697     5 
 7696  7695  7698     5 
 7697  7695  7698     5 
 7695  7698  7699     5 
 7695  7698  7700     5 
 7695  7698  7701     5 
 7699  7698  7700     5 
 7699  7698  7701     5 
 7700  7698  7701     5 
 7698  7701  7702     5 
 7698  7701  7703     5 
 7702  7701  7703     5 
 7701  7703  7704     5 
 7701  7703  7705     5 
 7704  7703  7705     5 
 7703  7705  7706     5 
 7703  7705  7707     5 
 7703  7705  7708     5 
 7706  7705  7707     5 
 7706  7705  7708     5 
 7707  7705  7708     5 
 7705  7708  7709     5 
 7705  7708  7710     5 
 7705  7708  7711     5 
 7709  7708  7710     5 
 7709  7708  7711     5 
 7710  7708  7711     5 
 7708  7711  7712     5 
 7708  7711  7713     5 
 7708  7711  7714     5 
 7712  7711  7713     5 
 7712  7711  7714     5 
 7713  7711  7714     5 
 7711  7714  7715     5 
 7711  7714  7716     5 
 7711  7714  7717     5 
 7715  7714  7716     5 
 7715  7714  7717     5 
 7716  7714  7717     5 
 7714  7717  7718     5 
 7714  7717  7719     5 
 7714  7717  7720     5 
 7718  7717  7719     5 
 7718  7717  7720     5 
 7719  7717  7720     5 
 7717  7720  7721     5 
 7717  7720  7722     5 
 7717  7720  7723     5 
 7721  7720  7722     5 
 7721  7720  7723     5 
 7722  7720  7723     5 
 7720  7723  7724     5 
 7720  7723  7725     5 
 7720  7723  7726     5 
 7724  7723  7725     5 
 7724  7723  7726     5 
 7725  7723  7726     5 
 7723  7726  7727     5 
 7723  7726  7728     5 
 7723  7726  7729     5 
 7727  7726  7728     5 
 7727  7726  7729     5 
 7728  7726  7729     5 
 7680  7730  7731     5 
 7680  7730  7732     5 
 7680  7730  7733     5 
 7731  7730  7732     5 
 7731  7730  7733     5 
 7732  7730  7733     5 
 7730  7733  7734     5 
 7730  7733  7735     5 
 7730  7733  7736     5 
 7734  7733  7735     5 
 7734  7733  7736     5 
 7735  7733  7736     5 
 7733  7736  7737     5 
 7733  7736  7738     5 
 7733  7736  7739     5 
 7737  7736  7738     5 
 7737  7736  7739     5 
 7738  7736  7739     5 
 7736  7739  7740     5 
 7736  7739  7741     5 
 7736  7739  7742     5 
 7740  7739  7741     5 
 7740  7739  7742     5 
 7741  7739  7742     5 
 7739  7742  7743     5 
 7739  7742  7744     5 
 7739  7742  7745     5 
 7743  7742  7744     5 
 7743  7742  7745     5 
 7744  7742  7745     5 
 7742  7745  7746     5 
 7742  7745  7747     5 
 7742  7745  7748     5 
 7746  7745  7747     5 
 7746  7745  7748     5 
 7747  7745  7748     5 
 7745  7748  7749     5 
 7745  7748  7750     5 
 7745  7748  7751     5 
 7749  7748  7750     5 
 7749  7748  7751     5 
 7750  7748  7751     5 
 7748  7751  7752     5 
 7748  7751  7753     5 
 7748  7751  7754     5 
 7752  7751  7753     5 
 7752  7751  7754     5 
 7753  7751  7754     5 
 7751  7754  7755     5 
 7751  7754  7756     5 
 7751  7754  7757     5 
 7755  7754  7756     5 
 7755  7754  7757     5 
 7756  7754  7757     5 
 7754  7757  7758     5 
 7754  7757  7759     5 
 7754  7757  7760     5 
 7758  7757  7759     5 
 7758  7757  7760     5 
 7759  7757  7760     5 
 7757  7760  7761     5 
 7757  7760  7762     5 
 7757  7760  7763     5 
 7761  7760  7762     5 
 7761  7760  7763     5 
 7762  7760  7763     5 
 7760  7763  7764     5 
 7760  7763  7765     5 
 7760  7763  7766     5 
 7764  7763  7765     5 
 7764  7763  7766     5 
 7765  7763  7766     5 
 7763  7766  7767     5 
 7763  7766  7768     5 
 7763  7766  7769     5 
 7767  7766  7768     5 
 7767  7766  7769     5 
 7768  7766  7769     5 
 7766  7769  7770     5 
 7766  7769  7771     5 
 7766  7769  7772     5 
 7770  7769  7771     5 
 7770  7769  7772     5 
 7771  7769  7772     5 
 7774  7773  7777     5 
 7774  7773  7781     5 
 7774  7773  7785     5 
 7777  7773  7781     5 
 7777  7773  7785     5 
 7781  7773  7785     5 
 7773  7774  7775     5 
 7773  7774  7776     5 
 7773  7774  7789     5 
 7775  7774  7776     5 
 7775  7774  7789     5 
 7776  7774  7789     5 
 7773  7777  7778     5 
 7773  7777  7779     5 
 7773  7777  7780     5 
 7778  7777  7779     5 
 7778  7777  7780     5 
 7779  7777  7780     5 
 7773  7781  7782     5 
 7773  7781  7783     5 
 7773  7781  7784     5 
 7782  7781  7783     5 
 7782  7781  7784     5 
 7783  7781  7784     5 
 7773  7785  7786     5 
 7773  7785  7787     5 
 7773  7785  7788     5 
 7786  7785  7787     5 
 7786  7785  7788     5 
 7787  7785  7788     5 
 7774  7789  7790     5 
 7774  7789  7791     5 
 7774  7789  7795     5 
 7790  7789  7791     5 
 7790  7789  7795     5 
 7791  7789  7795     5 
 7793  7792  7794     5 
 7793  7792  7795     5 
 7793  7792  7796     5 
 7794  7792  7795     5 
 7794  7792  7796     5 
 7795  7792  7796     5 
 7789  7795  7792     5 
 7792  7796  7797     5 
 7796  7797  7798     5 
 7796  7797  7799     5 
 7796  7797  7800     5 
 7798  7797  7799     5 
 7798  7797  7800     5 
 7799  7797  7800     5 
 7797  7800  7801     5 
 7797  7800  7802     5 
 7797  7800  7808     5 
 7801  7800  7802     5 
 7801  7800  7808     5 
 7802  7800  7808     5 
 7800  7802  7803     5 
 7802  7803  7804     5 
 7802  7803  7805     5 
 7804  7803  7805     5 
 7803  7805  7806     5 
 7803  7805  7807     5 
 7803  7805  7817     5 
 7806  7805  7807     5 
 7806  7805  7817     5 
 7807  7805  7817     5 
 7800  7808  7809     5 
 7800  7808  7810     5 
 7800  7808  7811     5 
 7809  7808  7810     5 
 7809  7808  7811     5 
 7810  7808  7811     5 
 7808  7811  7812     5 
 7811  7812  7813     5 
 7811  7812  7814     5 
 7813  7812  7814     5 
 7812  7814  7815     5 
 7812  7814  7816     5 
 7812  7814  7864     5 
 7815  7814  7816     5 
 7815  7814  7864     5 
 7816  7814  7864     5 
 7805  7817  7818     5 
 7805  7817  7819     5 
 7805  7817  7820     5 
 7818  7817  7819     5 
 7818  7817  7820     5 
 7819  7817  7820     5 
 7817  7820  7821     5 
 7817  7820  7822     5 
 7817  7820  7823     5 
 7821  7820  7822     5 
 7821  7820  7823     5 
 7822  7820  7823     5 
 7820  7823  7824     5 
 7820  7823  7825     5 
 7820  7823  7826     5 
 7824  7823  7825     5 
 7824  7823  7826     5 
 7825  7823  7826     5 
 7823  7826  7827     5 
 7823  7826  7828     5 
 7823  7826  7829     5 
 7827  7826  7828     5 
 7827  7826  7829     5 
 7828  7826  7829     5 
 7826  7829  7830     5 
 7826  7829  7831     5 
 7826  7829  7832     5 
 7830  7829  7831     5 
 7830  7829  7832     5 
 7831  7829  7832     5 
 7829  7832  7833     5 
 7829  7832  7834     5 
 7829  7832  7835     5 
 7833  7832  7834     5 
 7833  7832  7835     5 
 7834  7832  7835     5 
 7832  7835  7836     5 
 7832  7835  7837     5 
 7836  7835  7837     5 
 7835  7837  7838     5 
 7835  7837  7839     5 
 7838  7837  7839     5 
 7837  7839  7840     5 
 7837  7839  7841     5 
 7837  7839  7842     5 
 7840  7839  7841     5 
 7840  7839  7842     5 
 7841  7839  7842     5 
 7839  7842  7843     5 
 7839  7842  7844     5 
 7839  7842  7845     5 
 7843  7842  7844     5 
 7843  7842  7845     5 
 7844  7842  7845     5 
 7842  7845  7846     5 
 7842  7845  7847     5 
 7842  7845  7848     5 
 7846  7845  7847     5 
 7846  7845  7848     5 
 7847  7845  7848     5 
 7845  7848  7849     5 
 7845  7848  7850     5 
 7845  7848  7851     5 
 7849  7848  7850     5 
 7849  7848  7851     5 
 7850  7848  7851     5 
 7848  7851  7852     5 
 7848  7851  7853     5 
 7848  7851  7854     5 
 7852  7851  7853     5 
 7852  7851  7854     5 
 7853  7851  7854     5 
 7851  7854  7855     5 
 7851  7854  7856     5 
 7851  7854  7857     5 
 7855  7854  7856     5 
 7855  7854  7857     5 
 7856  7854  7857     5 
 7854  7857  7858     5 
 7854  7857  7859     5 
 7854  7857  7860     5 
 7858  7857  7859     5 
 7858  7857  7860     5 
 7859  7857  7860     5 
 7857  7860  7861     5 
 7857  7860  7862     5 
 7857  7860  7863     5 
 7861  7860  7862     5 
 7861  7860  7863     5 
 7862  7860  7863     5 
 7814  7864  7865     5 
 7814  7864  7866     5 
 7814  7864  7867     5 
 7865  7864  7866     5 
 7865  7864  7867     5 
 7866  7864  7867     5 
 7864  7867  7868     5 
 7864  7867  7869     5 
 7864  7867  7870     5 
 7868  7867  7869     5 
 7868  7867  7870     5 
 7869  7867  7870     5 
 7867  7870  7871     5 
 7867  7870  7872     5 
 7867  7870  7873     5 
 7871  7870  7872     5 
 7871  7870  7873     5 
 7872  7870  7873     5 
 7870  7873  7874     5 
 7870  7873  7875     5 
 7870  7873  7876     5 
 7874  7873  7875     5 
 7874  7873  7876     5 
 7875  7873  7876     5 
 7873  7876  7877     5 
 7873  7876  7878     5 
 7873  7876  7879     5 
 7877  7876  7878     5 
 7877  7876  7879     5 
 7878  7876  7879     5 
 7876  7879  7880     5 
 7876  7879  7881     5 
 7876  7879  7882     5 
 7880  7879  7881     5 
 7880  7879  7882     5 
 7881  7879  7882     5 
 7879  7882  7883     5 
 7879  7882  7884     5 
 7879  7882  7885     5 
 7883  7882  7884     5 
 7883  7882  7885     5 
 7884  7882  7885     5 
 7882  7885  7886     5 
 7882  7885  7887     5 
 7882  7885  7888     5 
 7886  7885  7887     5 
 7886  7885  7888     5 
 7887  7885  7888     5 
 7885  7888  7889     5 
 7885  7888  7890     5 
 7885  7888  7891     5 
 7889  7888  7890     5 
 7889  7888  7891     5 
 7890  7888  7891     5 
 7888  7891  7892     5 
 7888  7891  7893     5 
 7888  7891  7894     5 
 7892  7891  7893     5 
 7892  7891  7894     5 
 7893  7891  7894     5 
 7891  7894  7895     5 
 7891  7894  7896     5 
 7891  7894  7897     5 
 7895  7894  7896     5 
 7895  7894  7897     5 
 7896  7894  7897     5 
 7894  7897  7898     5 
 7894  7897  7899     5 
 7894  7897  7900     5 
 7898  7897  7899     5 
 7898  7897  7900     5 
 7899  7897  7900     5 
 7897  7900  7901     5 
 7897  7900  7902     5 
 7897  7900  7903     5 
 7901  7900  7902     5 
 7901  7900  7903     5 
 7902  7900  7903     5 
 7900  7903  7904     5 
 7900  7903  7905     5 
 7900  7903  7906     5 
 7904  7903  7905     5 
 7904  7903  7906     5 
 7905  7903  7906     5 
 7908  7907  7911     5 
 7908  7907  7915     5 
 7908  7907  7919     5 
 7911  7907  7915     5 
 7911  7907  7919     5 
 7915  7907  7919     5 
 7907  7908  7909     5 
 7907  7908  7910     5 
 7907  7908  7923     5 
 7909  7908  7910     5 
 7909  7908  7923     5 
 7910  7908  7923     5 
 7907  7911  7912     5 
 7907  7911  7913     5 
 7907  7911  7914     5 
 7912  7911  7913     5 
 7912  7911  7914     5 
 7913  7911  7914     5 
 7907  7915  7916     5 
 7907  7915  7917     5 
 7907  7915  7918     5 
 7916  7915  7917     5 
 7916  7915  7918     5 
 7917  7915  7918     5 
 7907  7919  7920     5 
 7907  7919  7921     5 
 7907  7919  7922     5 
 7920  7919  7921     5 
 7920  7919  7922     5 
 7921  7919  7922     5 
 7908  7923  7924     5 
 7908  7923  7925     5 
 7908  7923  7929     5 
 7924  7923  7925     5 
 7924  7923  7929     5 
 7925  7923  7929     5 
 7927  7926  7928     5 
 7927  7926  7929     5 
 7927  7926  7930     5 
 7928  7926  7929     5 
 7928  7926  7930     5 
 7929  7926  7930     5 
 7923  7929  7926     5 
 7926  7930  7931     5 
 7930  7931  7932     5 
 7930  7931  7933     5 
 7930  7931  7934     5 
 7932  7931  7933     5 
 7932  7931  7934     5 
 7933  7931  7934     5 
 7931  7934  7935     5 
 7931  7934  7936     5 
 7931  7934  7942     5 
 7935  7934  7936     5 
 7935  7934  7942     5 
 7936  7934  7942     5 
 7934  7936  7937     5 
 7936  7937  7938     5 
 7936  7937  7939     5 
 7938  7937  7939     5 
 7937  7939  7940     5 
 7937  7939  7941     5 
 7937  7939  7951     5 
 7940  7939  7941     5 
 7940  7939  7951     5 
 7941  7939  7951     5 
 7934  7942  7943     5 
 7934  7942  7944     5 
 7934  7942  7945     5 
 7943  7942  7944     5 
 7943  7942  7945     5 
 7944  7942  7945     5 
 7942  7945  7946     5 
 7945  7946  7947     5 
 7945  7946  7948     5 
 7947  7946  7948     5 
 7946  7948  7949     5 
 7946  7948  7950     5 
 7946  7948  7998     5 
 7949  7948  7950     5 
 7949  7948  7998     5 
 7950  7948  7998     5 
 7939  7951  7952     5 
 7939  7951  7953     5 
 7939  7951  7954     5 
 7952  7951  7953     5 
 7952  7951  7954     5 
 7953  7951  7954     5 
 7951  7954  7955     5 
 7951  7954  7956     5 
 7951  7954  7957     5 
 7955  7954  7956     5 
 7955  7954  7957     5 
 7956  7954  7957     5 
 7954  7957  7958     5 
 7954  7957  7959     5 
 7954  7957  7960     5 
 7958  7957  7959     5 
 7958  7957  7960     5 
 7959  7957  7960     5 
 7957  7960  7961     5 
 7957  7960  7962     5 
 7957  7960  7963     5 
 7961  7960  7962     5 
 7961  7960  7963     5 
 7962  7960  7963     5 
 7960  7963  7964     5 
 7960  7963  7965     5 
 7960  7963  7966     5 
 7964  7963  7965     5 
 7964  7963  7966     5 
 7965  7963  7966     5 
 7963  7966  7967     5 
 7963  7966  7968     5 
 7963  7966  7969     5 
 7967  7966  7968     5 
 7967  7966  7969     5 
 7968  7966  7969     5 
 7966  7969  7970     5 
 7966  7969  7971     5 
 7970  7969  7971     5 
 7969  7971  7972     5 
 7969  7971  7973     5 
 7972  7971  7973     5 
 7971  7973  7974     5 
 7971  7973  7975     5 
 7971  7973  7976     5 
 7974  7973  7975     5 
 7974  7973  7976     5 
 7975  7973  7976     5 
 7973  7976  7977     5 
 7973  7976  7978     5 
 7973  7976  7979     5 
 7977  7976  7978     5 
 7977  7976  7979     5 
 7978  7976  7979     5 
 7976  7979  7980     5 
 7976  7979  7981     5 
 7976  7979  7982     5 
 7980  7979  7981     5 
 7980  7979  7982     5 
 7981  7979  7982     5 
 7979  7982  7983     5 
 7979  7982  7984     5 
 7979  7982  7985     5 
 7983  7982  7984     5 
 7983  7982  7985     5 
 7984  7982  7985     5 
 7982  7985  7986     5 
 7982  7985  7987     5 
 7982  7985  7988     5 
 7986  7985  7987     5 
 7986  7985  7988     5 
 7987  7985  7988     5 
 7985  7988  7989     5 
 7985  7988  7990     5 
 7985  7988  7991     5 
 7989  7988  7990     5 
 7989  7988  7991     5 
 7990  7988  7991     5 
 7988  7991  7992     5 
 7988  7991  7993     5 
 7988  7991  7994     5 
 7992  7991  7993     5 
 7992  7991  7994     5 
 7993  7991  7994     5 
 7991  7994  7995     5 
 7991  7994  7996     5 
 7991  7994  7997     5 
 7995  7994  7996     5 
 7995  7994  7997     5 
 7996  7994  7997     5 
 7948  7998  7999     5 
 7948  7998  8000     5 
 7948  7998  8001     5 
 7999  7998  8000     5 
 7999  7998  8001     5 
 8000  7998  8001     5 
 7998  8001  8002     5 
 7998  8001  8003     5 
 7998  8001  8004     5 
 8002  8001  8003     5 
 8002  8001  8004     5 
 8003  8001  8004     5 
 8001  8004  8005     5 
 8001  8004  8006     5 
 8001  8004  8007     5 
 8005  8004  8006     5 
 8005  8004  8007     5 
 8006  8004  8007     5 
 8004  8007  8008     5 
 8004  8007  8009     5 
 8004  8007  8010     5 
 8008  8007  8009     5 
 8008  8007  8010     5 
 8009  8007  8010     5 
 8007  8010  8011     5 
 8007  8010  8012     5 
 8007  8010  8013     5 
 8011  8010  8012     5 
 8011  8010  8013     5 
 8012  8010  8013     5 
 8010  8013  8014     5 
 8010  8013  8015     5 
 8010  8013  8016     5 
 8014  8013  8015     5 
 8014  8013  8016     5 
 8015  8013  8016     5 
 8013  8016  8017     5 
 8013  8016  8018     5 
 8013  8016  8019     5 
 8017  8016  8018     5 
 8017  8016  8019     5 
 8018  8016  8019     5 
 8016  8019  8020     5 
 8016  8019  8021     5 
 8016  8019  8022     5 
 8020  8019  8021     5 
 8020  8019  8022     5 
 8021  8019  8022     5 
 8019  8022  8023     5 
 8019  8022  8024     5 
 8019  8022  8025     5 
 8023  8022  8024     5 
 8023  8022  8025     5 
 8024  8022  8025     5 
 8022  8025  8026     5 
 8022  8025  8027     5 
 8022  8025  8028     5 
 8026  8025  8027     5 
 8026  8025  8028     5 
 8027  8025  8028     5 
 8025  8028  8029     5 
 8025  8028  8030     5 
 8025  8028  8031     5 
 8029  8028  8030     5 
 8029  8028  8031     5 
 8030  8028  8031     5 
 8028  8031  8032     5 
 8028  8031  8033     5 
 8028  8031  8034     5 
 8032  8031  8033     5 
 8032  8031  8034     5 
 8033  8031  8034     5 
 8031  8034  8035     5 
 8031  8034  8036     5 
 8031  8034  8037     5 
 8035  8034  8036     5 
 8035  8034  8037     5 
 8036  8034  8037     5 
 8034  8037  8038     5 
 8034  8037  8039     5 
 8034  8037  8040     5 
 8038  8037  8039     5 
 8038  8037  8040     5 
 8039  8037  8040     5 
 8042  8041  8045     5 
 8042  8041  8049     5 
 8042  8041  8053     5 
 8045  8041  8049     5 
 8045  8041  8053     5 
 8049  8041  8053     5 
 8041  8042  8043     5 
 8041  8042  8044     5 
 8041  8042  8057     5 
 8043  8042  8044     5 
 8043  8042  8057     5 
 8044  8042  8057     5 
 8041  8045  8046     5 
 8041  8045  8047     5 
 8041  8045  8048     5 
 8046  8045  8047     5 
 8046  8045  8048     5 
 8047  8045  8048     5 
 8041  8049  8050     5 
 8041  8049  8051     5 
 8041  8049  8052     5 
 8050  8049  8051     5 
 8050  8049  8052     5 
 8051  8049  8052     5 
 8041  8053  8054     5 
 8041  8053  8055     5 
 8041  8053  8056     5 
 8054  8053  8055     5 
 8054  8053  8056     5 
 8055  8053  8056     5 
 8042  8057  8058     5 
 8042  8057  8059     5 
 8042  8057  8063     5 
 8058  8057  8059     5 
 8058  8057  8063     5 
 8059  8057  8063     5 
 8061  8060  8062     5 
 8061  8060  8063     5 
 8061  8060  8064     5 
 8062  8060  8063     5 
 8062  8060  8064     5 
 8063  8060  8064     5 
 8057  8063  8060     5 
 8060  8064  8065     5 
 8064  8065  8066     5 
 8064  8065  8067     5 
 8064  8065  8068     5 
 8066  8065  8067     5 
 8066  8065  8068     5 
 8067  8065  8068     5 
 8065  8068  8069     5 
 8065  8068  8070     5 
 8065  8068  8076     5 
 8069  8068  8070     5 
 8069  8068  8076     5 
 8070  8068  8076     5 
 8068  8070  8071     5 
 8070  8071  8072     5 
 8070  8071  8073     5 
 8072  8071  8073     5 
 8071  8073  8074     5 
 8071  8073  8075     5 
 8071  8073  8085     5 
 8074  8073  8075     5 
 8074  8073  8085     5 
 8075  8073  8085     5 
 8068  8076  8077     5 
 8068  8076  8078     5 
 8068  8076  8079     5 
 8077  8076  8078     5 
 8077  8076  8079     5 
 8078  8076  8079     5 
 8076  8079  8080     5 
 8079  8080  8081     5 
 8079  8080  8082     5 
 8081  8080  8082     5 
 8080  8082  8083     5 
 8080  8082  8084     5 
 8080  8082  8132     5 
 8083  8082  8084     5 
 8083  8082  8132     5 
 8084  8082  8132     5 
 8073  8085  8086     5 
 8073  8085  8087     5 
 8073  8085  8088     5 
 8086  8085  8087     5 
 8086  8085  8088     5 
 8087  8085  8088     5 
 8085  8088  8089     5 
 8085  8088  8090     5 
 8085  8088  8091     5 
 8089  8088  8090     5 
 8089  8088  8091     5 
 8090  8088  8091     5 
 8088  8091  8092     5 
 8088  8091  8093     5 
 8088  8091  8094     5 
 8092  8091  8093     5 
 8092  8091  8094     5 
 8093  8091  8094     5 
 8091  8094  8095     5 
 8091  8094  8096     5 
 8091  8094  8097     5 
 8095  8094  8096     5 
 8095  8094  8097     5 
 8096  8094  8097     5 
 8094  8097  8098     5 
 8094  8097  8099     5 
 8094  8097  8100     5 
 8098  8097  8099     5 
 8098  8097  8100     5 
 8099  8097  8100     5 
 8097  8100  8101     5 
 8097  8100  8102     5 
 8097  8100  8103     5 
 8101  8100  8102     5 
 8101  8100  8103     5 
 8102  8100  8103     5 
 8100  8103  8104     5 
 8100  8103  8105     5 
 8104  8103  8105     5 
 8103  8105  8106     5 
 8103  8105  8107     5 
 8106  8105  8107     5 
 8105  8107  8108     5 
 8105  8107  8109     5 
 8105  8107  8110     5 
 8108  8107  8109     5 
 8108  8107  8110     5 
 8109  8107  8110     5 
 8107  8110  8111     5 
 8107  8110  8112     5 
 8107  8110  8113     5 
 8111  8110  8112     5 
 8111  8110  8113     5 
 8112  8110  8113     5 
 8110  8113  8114     5 
 8110  8113  8115     5 
 8110  8113  8116     5 
 8114  8113  8115     5 
 8114  8113  8116     5 
 8115  8113  8116     5 
 8113  8116  8117     5 
 8113  8116  8118     5 
 8113  8116  8119     5 
 8117  8116  8118     5 
 8117  8116  8119     5 
 8118  8116  8119     5 
 8116  8119  8120     5 
 8116  8119  8121     5 
 8116  8119  8122     5 
 8120  8119  8121     5 
 8120  8119  8122     5 
 8121  8119  8122     5 
 8119  8122  8123     5 
 8119  8122  8124     5 
 8119  8122  8125     5 
 8123  8122  8124     5 
 8123  8122  8125     5 
 8124  8122  8125     5 
 8122  8125  8126     5 
 8122  8125  8127     5 
 8122  8125  8128     5 
 8126  8125  8127     5 
 8126  8125  8128     5 
 8127  8125  8128     5 
 8125  8128  8129     5 
 8125  8128  8130     5 
 8125  8128  8131     5 
 8129  8128  8130     5 
 8129  8128  8131     5 
 8130  8128  8131     5 
 8082  8132  8133     5 
 8082  8132  8134     5 
 8082  8132  8135     5 
 8133  8132  8134     5 
 8133  8132  8135     5 
 8134  8132  8135     5 
 8132  8135  8136     5 
 8132  8135  8137     5 
 8132  8135  8138     5 
 8136  8135  8137     5 
 8136  8135  8138     5 
 8137  8135  8138     5 
 8135  8138  8139     5 
 8135  8138  8140     5 
 8135  8138  8141     5 
 8139  8138  8140     5 
 8139  8138  8141     5 
 8140  8138  8141     5 
 8138  8141  8142     5 
 8138  8141  8143     5 
 8138  8141  8144     5 
 8142  8141  8143     5 
 8142  8141  8144     5 
 8143  8141  8144     5 
 8141  8144  8145     5 
 8141  8144  8146     5 
 8141  8144  8147     5 
 8145  8144  8146     5 
 8145  8144  8147     5 
 8146  8144  8147     5 
 8144  8147  8148     5 
 8144  8147  8149     5 
 8144  8147  8150     5 
 8148  8147  8149     5 
 8148  8147  8150     5 
 8149  8147  8150     5 
 8147  8150  8151     5 
 8147  8150  8152     5 
 8147  8150  8153     5 
 8151  8150  8152     5 
 8151  8150  8153     5 
 8152  8150  8153     5 
 8150  8153  8154     5 
 8150  8153  8155     5 
 8150  8153  8156     5 
 8154  8153  8155     5 
 8154  8153  8156     5 
 8155  8153  8156     5 
 8153  8156  8157     5 
 8153  8156  8158     5 
 8153  8156  8159     5 
 8157  8156  8158     5 
 8157  8156  8159     5 
 8158  8156  8159     5 
 8156  8159  8160     5 
 8156  8159  8161     5 
 8156  8159  8162     5 
 8160  8159  8161     5 
 8160  8159  8162     5 
 8161  8159  8162     5 
 8159  8162  8163     5 
 8159  8162  8164     5 
 8159  8162  8165     5 
 8163  8162  8164     5 
 8163  8162  8165     5 
 8164  8162  8165     5 
 8162  8165  8166     5 
 8162  8165  8167     5 
 8162  8165  8168     5 
 8166  8165  8167     5 
 8166  8165  8168     5 
 8167  8165  8168     5 
 8165  8168  8169     5 
 8165  8168  8170     5 
 8165  8168  8171     5 
 8169  8168  8170     5 
 8169  8168  8171     5 
 8170  8168  8171     5 
 8168  8171  8172     5 
 8168  8171  8173     5 
 8168  8171  8174     5 
 8172  8171  8173     5 
 8172  8171  8174     5 
 8173  8171  8174     5 
 8176  8175  8179     5 
 8176  8175  8183     5 
 8176  8175  8187     5 
 8179  8175  8183     5 
 8179  8175  8187     5 
 8183  8175  8187     5 
 8175  8176  8177     5 
 8175  8176  8178     5 
 8175  8176  8191     5 
 8177  8176  8178     5 
 8177  8176  8191     5 
 8178  8176  8191     5 
 8175  8179  8180     5 
 8175  8179  8181     5 
 8175  8179  8182     5 
 8180  8179  8181     5 
 8180  8179  8182     5 
 8181  8179  8182     5 
 8175  8183  8184     5 
 8175  8183  8185     5 
 8175  8183  8186     5 
 8184  8183  8185     5 
 8184  8183  8186     5 
 8185  8183  8186     5 
 8175  8187  8188     5 
 8175  8187  8189     5 
 8175  8187  8190     5 
 8188  8187  8189     5 
 8188  8187  8190     5 
 8189  8187  8190     5 
 8176  8191  8192     5 
 8176  8191  8193     5 
 8176  8191  8197     5 
 8192  8191  8193     5 
 8192  8191  8197     5 
 8193  8191  8197     5 
 8195  8194  8196     5 
 8195  8194  8197     5 
 8195  8194  8198     5 
 8196  8194  8197     5 
 8196  8194  8198     5 
 8197  8194  8198     5 
 8191  8197  8194     5 
 8194  8198  8199     5 
 8198  8199  8200     5 
 8198  8199  8201     5 
 8198  8199  8202     5 
 8200  8199  8201     5 
 8200  8199  8202     5 
 8201  8199  8202     5 
 8199  8202  8203     5 
 8199  8202  8204     5 
 8199  8202  8210     5 
 8203  8202  8204     5 
 8203  8202  8210     5 
 8204  8202  8210     5 
 8202  8204  8205     5 
 8204  8205  8206     5 
 8204  8205  8207     5 
 8206  8205  8207     5 
 8205  8207  8208     5 
 8205  8207  8209     5 
 8205  8207  8219     5 
 8208  8207  8209     5 
 8208  8207  8219     5 
 8209  8207  8219     5 
 8202  8210  8211     5 
 8202  8210  8212     5 
 8202  8210  8213     5 
 8211  8210  8212     5 
 8211  8210  8213     5 
 8212  8210  8213     5 
 8210  8213  8214     5 
 8213  8214  8215     5 
 8213  8214  8216     5 
 8215  8214  8216     5 
 8214  8216  8217     5 
 8214  8216  8218     5 
 8214  8216  8266     5 
 8217  8216  8218     5 
 8217  8216  8266     5 
 8218  8216  8266     5 
 8207  8219  8220     5 
 8207  8219  8221     5 
 8207  8219  8222     5 
 8220  8219  8221     5 
 8220  8219  8222     5 
 8221  8219  8222     5 
 8219  8222  8223     5 
 8219  8222  8224     5 
 8219  8222  8225     5 
 8223  8222  8224     5 
 8223  8222  8225     5 
 8224  8222  8225     5 
 8222  8225  8226     5 
 8222  8225  8227     5 
 8222  8225  8228     5 
 8226  8225  8227     5 
 8226  8225  8228     5 
 8227  8225  8228     5 
 8225  8228  8229     5 
 8225  8228  8230     5 
 8225  8228  8231     5 
 8229  8228  8230     5 
 8229  8228  8231     5 
 8230  8228  8231     5 
 8228  8231  8232     5 
 8228  8231  8233     5 
 8228  8231  8234     5 
 8232  8231  8233     5 
 8232  8231  8234     5 
 8233  8231  8234     5 
 8231  8234  8235     5 
 8231  8234  8236     5 
 8231  8234  8237     5 
 8235  8234  8236     5 
 8235  8234  8237     5 
 8236  8234  8237     5 
 8234  8237  8238     5 
 8234  8237  8239     5 
 8238  8237  8239     5 
 8237  8239  8240     5 
 8237  8239  8241     5 
 8240  8239  8241     5 
 8239  8241  8242     5 
 8239  8241  8243     5 
 8239  8241  8244     5 
 8242  8241  8243     5 
 8242  8241  8244     5 
 8243  8241  8244     5 
 8241  8244  8245     5 
 8241  8244  8246     5 
 8241  8244  8247     5 
 8245  8244  8246     5 
 8245  8244  8247     5 
 8246  8244  8247     5 
 8244  8247  8248     5 
 8244  8247  8249     5 
 8244  8247  8250     5 
 8248  8247  8249     5 
 8248  8247  8250     5 
 8249  8247  8250     5 
 8247  8250  8251     5 
 8247  8250  8252     5 
 8247  8250  8253     5 
 8251  8250  8252     5 
 8251  8250  8253     5 
 8252  8250  8253     5 
 8250  8253  8254     5 
 8250  8253  8255     5 
 8250  8253  8256     5 
 8254  8253  8255     5 
 8254  8253  8256     5 
 8255  8253  8256     5 
 8253  8256  8257     5 
 8253  8256  8258     5 
 8253  8256  8259     5 
 8257  8256  8258     5 
 8257  8256  8259     5 
 8258  8256  8259     5 
 8256  8259  8260     5 
 8256  8259  8261     5 
 8256  8259  8262     5 
 8260  8259  8261     5 
 8260  8259  8262     5 
 8261  8259  8262     5 
 8259  8262  8263     5 
 8259  8262  8264     5 
 8259  8262  8265     5 
 8263  8262  8264     5 
 8263  8262  8265     5 
 8264  8262  8265     5 
 8216  8266  8267     5 
 8216  8266  8268     5 
 8216  8266  8269     5 
 8267  8266  8268     5 
 8267  8266  8269     5 
 8268  8266  8269     5 
 8266  8269  8270     5 
 8266  8269  8271     5 
 8266  8269  8272     5 
 8270  8269  8271     5 
 8270  8269  8272     5 
 8271  8269  8272     5 
 8269  8272  8273     5 
 8269  8272  8274     5 
 8269  8272  8275     5 
 8273  8272  8274     5 
 8273  8272  8275     5 
 8274  8272  8275     5 
 8272  8275  8276     5 
 8272  8275  8277     5 
 8272  8275  8278     5 
 8276  8275  8277     5 
 8276  8275  8278     5 
 8277  8275  8278     5 
 8275  8278  8279     5 
 8275  8278  8280     5 
 8275  8278  8281     5 
 8279  8278  8280     5 
 8279  8278  8281     5 
 8280  8278  8281     5 
 8278  8281  8282     5 
 8278  8281  8283     5 
 8278  8281  8284     5 
 8282  8281  8283     5 
 8282  8281  8284     5 
 8283  8281  8284     5 
 8281  8284  8285     5 
 8281  8284  8286     5 
 8281  8284  8287     5 
 8285  8284  8286     5 
 8285  8284  8287     5 
 8286  8284  8287     5 
 8284  8287  8288     5 
 8284  8287  8289     5 
 8284  8287  8290     5 
 8288  8287  8289     5 
 8288  8287  8290     5 
 8289  8287  8290     5 
 8287  8290  8291     5 
 8287  8290  8292     5 
 8287  8290  8293     5 
 8291  8290  8292     5 
 8291  8290  8293     5 
 8292  8290  8293     5 
 8290  8293  8294     5 
 8290  8293  8295     5 
 8290  8293  8296     5 
 8294  8293  8295     5 
 8294  8293  8296     5 
 8295  8293  8296     5 
 8293  8296  8297     5 
 8293  8296  8298     5 
 8293  8296  8299     5 
 8297  8296  8298     5 
 8297  8296  8299     5 
 8298  8296  8299     5 
 8296  8299  8300     5 
 8296  8299  8301     5 
 8296  8299  8302     5 
 8300  8299  8301     5 
 8300  8299  8302     5 
 8301  8299  8302     5 
 8299  8302  8303     5 
 8299  8302  8304     5 
 8299  8302  8305     5 
 8303  8302  8304     5 
 8303  8302  8305     5 
 8304  8302  8305     5 
 8302  8305  8306     5 
 8302  8305  8307     5 
 8302  8305  8308     5 
 8306  8305  8307     5 
 8306  8305  8308     5 
 8307  8305  8308     5 
 8310  8309  8313     5 
 8310  8309  8317     5 
 8310  8309  8321     5 
 8313  8309  8317     5 
 8313  8309  8321     5 
 8317  8309  8321     5 
 8309  8310  8311     5 
 8309  8310  8312     5 
 8309  8310  8325     5 
 8311  8310  8312     5 
 8311  8310  8325     5 
 8312  8310  8325     5 
 8309  8313  8314     5 
 8309  8313  8315     5 
 8309  8313  8316     5 
 8314  8313  8315     5 
 8314  8313  8316     5 
 8315  8313  8316     5 
 8309  8317  8318     5 
 8309  8317  8319     5 
 8309  8317  8320     5 
 8318  8317  8319     5 
 8318  8317  8320     5 
 8319  8317  8320     5 
 8309  8321  8322     5 
 8309  8321  8323     5 
 8309  8321  8324     5 
 8322  8321  8323     5 
 8322  8321  8324     5 
 8323  8321  8324     5 
 8310  8325  8326     5 
 8310  8325  8327     5 
 8310  8325  8331     5 
 8326  8325  8327     5 
 8326  8325  8331     5 
 8327  8325  8331     5 
 8329  8328  8330     5 
 8329  8328  8331     5 
 8329  8328  8332     5 
 8330  8328  8331     5 
 8330  8328  8332     5 
 8331  8328  8332     5 
 8325  8331  8328     5 
 8328  8332  8333     5 
 8332  8333  8334     5 
 8332  8333  8335     5 
 8332  8333  8336     5 
 8334  8333  8335     5 
 8334  8333  8336     5 
 8335  8333  8336     5 
 8333  8336  8337     5 
 8333  8336  8338     5 
 8333  8336  8344     5 
 8337  8336  8338     5 
 8337  8336  8344     5 
 8338  8336  8344     5 
 8336  8338  8339     5 
 8338  8339  8340     5 
 8338  8339  8341     5 
 8340  8339  8341     5 
 8339  8341  8342     5 
 8339  8341  8343     5 
 8339  8341  8353     5 
 8342  8341  8343     5 
 8342  8341  8353     5 
 8343  8341  8353     5 
 8336  8344  8345     5 
 8336  8344  8346     5 
 8336  8344  8347     5 
 8345  8344  8346     5 
 8345  8344  8347     5 
 8346  8344  8347     5 
 8344  8347  8348     5 
 8347  8348  8349     5 
 8347  8348  8350     5 
 8349  8348  8350     5 
 8348  8350  8351     5 
 8348  8350  8352     5 
 8348  8350  8400     5 
 8351  8350  8352     5 
 8351  8350  8400     5 
 8352  8350  8400     5 
 8341  8353  8354     5 
 8341  8353  8355     5 
 8341  8353  8356     5 
 8354  8353  8355     5 
 8354  8353  8356     5 
 8355  8353  8356     5 
 8353  8356  8357     5 
 8353  8356  8358     5 
 8353  8356  8359     5 
 8357  8356  8358     5 
 8357  8356  8359     5 
 8358  8356  8359     5 
 8356  8359  8360     5 
 8356  8359  8361     5 
 8356  8359  8362     5 
 8360  8359  8361     5 
 8360  8359  8362     5 
 8361  8359  8362     5 
 8359  8362  8363     5 
 8359  8362  8364     5 
 8359  8362  8365     5 
 8363  8362  8364     5 
 8363  8362  8365     5 
 8364  8362  8365     5 
 8362  8365  8366     5 
 8362  8365  8367     5 
 8362  8365  8368     5 
 8366  8365  8367     5 
 8366  8365  8368     5 
 8367  8365  8368     5 
 8365  8368  8369     5 
 8365  8368  8370     5 
 8365  8368  8371     5 
 8369  8368  8370     5 
 8369  8368  8371     5 
 8370  8368  8371     5 
 8368  8371  8372     5 
 8368  8371  8373     5 
 8372  8371  8373     5 
 8371  8373  8374     5 
 8371  8373  8375     5 
 8374  8373  8375     5 
 8373  8375  8376     5 
 8373  8375  8377     5 
 8373  8375  8378     5 
 8376  8375  8377     5 
 8376  8375  8378     5 
 8377  8375  8378     5 
 8375  8378  8379     5 
 8375  8378  8380     5 
 8375  8378  8381     5 
 8379  8378  8380     5 
 8379  8378  8381     5 
 8380  8378  8381     5 
 8378  8381  8382     5 
 8378  8381  8383     5 
 8378  8381  8384     5 
 8382  8381  8383     5 
 8382  8381  8384     5 
 8383  8381  8384     5 
 8381  8384  8385     5 
 8381  8384  8386     5 
 8381  8384  8387     5 
 8385  8384  8386     5 
 8385  8384  8387     5 
 8386  8384  8387     5 
 8384  8387  8388     5 
 8384  8387  8389     5 
 8384  8387  8390     5 
 8388  8387  8389     5 
 8388  8387  8390     5 
 8389  8387  8390     5 
 8387  8390  8391     5 
 8387  8390  8392     5 
 8387  8390  8393     5 
 8391  8390  8392     5 
 8391  8390  8393     5 
 8392  8390  8393     5 
 8390  8393  8394     5 
 8390  8393  8395     5 
 8390  8393  8396     5 
 8394  8393  8395     5 
 8394  8393  8396     5 
 8395  8393  8396     5 
 8393  8396  8397     5 
 8393  8396  8398     5 
 8393  8396  8399     5 
 8397  8396  8398     5 
 8397  8396  8399     5 
 8398  8396  8399     5 
 8350  8400  8401     5 
 8350  8400  8402     5 
 8350  8400  8403     5 
 8401  8400  8402     5 
 8401  8400  8403     5 
 8402  8400  8403     5 
 8400  8403  8404     5 
 8400  8403  8405     5 
 8400  8403  8406     5 
 8404  8403  8405     5 
 8404  8403  8406     5 
 8405  8403  8406     5 
 8403  8406  8407     5 
 8403  8406  8408     5 
 8403  8406  8409     5 
 8407  8406  8408     5 
 8407  8406  8409     5 
 8408  8406  8409     5 
 8406  8409  8410     5 
 8406  8409  8411     5 
 8406  8409  8412     5 
 8410  8409  8411     5 
 8410  8409  8412     5 
 8411  8409  8412     5 
 8409  8412  8413     5 
 8409  8412  8414     5 
 8409  8412  8415     5 
 8413  8412  8414     5 
 8413  8412  8415     5 
 8414  8412  8415     5 
 8412  8415  8416     5 
 8412  8415  8417     5 
 8412  8415  8418     5 
 8416  8415  8417     5 
 8416  8415  8418     5 
 8417  8415  8418     5 
 8415  8418  8419     5 
 8415  8418  8420     5 
 8415  8418  8421     5 
 8419  8418  8420     5 
 8419  8418  8421     5 
 8420  8418  8421     5 
 8418  8421  8422     5 
 8418  8421  8423     5 
 8418  8421  8424     5 
 8422  8421  8423     5 
 8422  8421  8424     5 
 8423  8421  8424     5 
 8421  8424  8425     5 
 8421  8424  8426     5 
 8421  8424  8427     5 
 8425  8424  8426     5 
 8425  8424  8427     5 
 8426  8424  8427     5 
 8424  8427  8428     5 
 8424  8427  8429     5 
 8424  8427  8430     5 
 8428  8427  8429     5 
 8428  8427  8430     5 
 8429  8427  8430     5 
 8427  8430  8431     5 
 8427  8430  8432     5 
 8427  8430  8433     5 
 8431  8430  8432     5 
 8431  8430  8433     5 
 8432  8430  8433     5 
 8430  8433  8434     5 
 8430  8433  8435     5 
 8430  8433  8436     5 
 8434  8433  8435     5 
 8434  8433  8436     5 
 8435  8433  8436     5 
 8433  8436  8437     5 
 8433  8436  8438     5 
 8433  8436  8439     5 
 8437  8436  8438     5 
 8437  8436  8439     5 
 8438  8436  8439     5 
 8436  8439  8440     5 
 8436  8439  8441     5 
 8436  8439  8442     5 
 8440  8439  8441     5 
 8440  8439  8442     5 
 8441  8439  8442     5 
 8444  8443  8447     5 
 8444  8443  8451     5 
 8444  8443  8455     5 
 8447  8443  8451     5 
 8447  8443  8455     5 
 8451  8443  8455     5 
 8443  8444  8445     5 
 8443  8444  8446     5 
 8443  8444  8459     5 
 8445  8444  8446     5 
 8445  8444  8459     5 
 8446  8444  8459     5 
 8443  8447  8448     5 
 8443  8447  8449     5 
 8443  8447  8450     5 
 8448  8447  8449     5 
 8448  8447  8450     5 
 8449  8447  8450     5 
 8443  8451  8452     5 
 8443  8451  8453     5 
 8443  8451  8454     5 
 8452  8451  8453     5 
 8452  8451  8454     5 
 8453  8451  8454     5 
 8443  8455  8456     5 
 8443  8455  8457     5 
 8443  8455  8458     5 
 8456  8455  8457     5 
 8456  8455  8458     5 
 8457  8455  8458     5 
 8444  8459  8460     5 
 8444  8459  8461     5 
 8444  8459  8465     5 
 8460  8459  8461     5 
 8460  8459  8465     5 
 8461  8459  8465     5 
 8463  8462  8464     5 
 8463  8462  8465     5 
 8463  8462  8466     5 
 8464  8462  8465     5 
 8464  8462  8466     5 
 8465  8462  8466     5 
 8459  8465  8462     5 
 8462  8466  8467     5 
 8466  8467  8468     5 
 8466  8467  8469     5 
 8466  8467  8470     5 
 8468  8467  8469     5 
 8468  8467  8470     5 
 8469  8467  8470     5 
 8467  8470  8471     5 
 8467  8470  8472     5 
 8467  8470  8478     5 
 8471  8470  8472     5 
 8471  8470  8478     5 
 8472  8470  8478     5 
 8470  8472  8473     5 
 8472  8473  8474     5 
 8472  8473  8475     5 
 8474  8473  8475     5 
 8473  8475  8476     5 
 8473  8475  8477     5 
 8473  8475  8487     5 
 8476  8475  8477     5 
 8476  8475  8487     5 
 8477  8475  8487     5 
 8470  8478  8479     5 
 8470  8478  8480     5 
 8470  8478  8481     5 
 8479  8478  8480     5 
 8479  8478  8481     5 
 8480  8478  8481     5 
 8478  8481  8482     5 
 8481  8482  8483     5 
 8481  8482  8484     5 
 8483  8482  8484     5 
 8482  8484  8485     5 
 8482  8484  8486     5 
 8482  8484  8534     5 
 8485  8484  8486     5 
 8485  8484  8534     5 
 8486  8484  8534     5 
 8475  8487  8488     5 
 8475  8487  8489     5 
 8475  8487  8490     5 
 8488  8487  8489     5 
 8488  8487  8490     5 
 8489  8487  8490     5 
 8487  8490  8491     5 
 8487  8490  8492     5 
 8487  8490  8493     5 
 8491  8490  8492     5 
 8491  8490  8493     5 
 8492  8490  8493     5 
 8490  8493  8494     5 
 8490  8493  8495     5 
 8490  8493  8496     5 
 8494  8493  8495     5 
 8494  8493  8496     5 
 8495  8493  8496     5 
 8493  8496  8497     5 
 8493  8496  8498     5 
 8493  8496  8499     5 
 8497  8496  8498     5 
 8497  8496  8499     5 
 8498  8496  8499     5 
 8496  8499  8500     5 
 8496  8499  8501     5 
 8496  8499  8502     5 
 8500  8499  8501     5 
 8500  8499  8502     5 
 8501  8499  8502     5 
 8499  8502  8503     5 
 8499  8502  8504     5 
 8499  8502  8505     5 
 8503  8502  8504     5 
 8503  8502  8505     5 
 8504  8502  8505     5 
 8502  8505  8506     5 
 8502  8505  8507     5 
 8506  8505  8507     5 
 8505  8507  8508     5 
 8505  8507  8509     5 
 8508  8507  8509     5 
 8507  8509  8510     5 
 8507  8509  8511     5 
 8507  8509  8512     5 
 8510  8509  8511     5 
 8510  8509  8512     5 
 8511  8509  8512     5 
 8509  8512  8513     5 
 8509  8512  8514     5 
 8509  8512  8515     5 
 8513  8512  8514     5 
 8513  8512  8515     5 
 8514  8512  8515     5 
 8512  8515  8516     5 
 8512  8515  8517     5 
 8512  8515  8518     5 
 8516  8515  8517     5 
 8516  8515  8518     5 
 8517  8515  8518     5 
 8515  8518  8519     5 
 8515  8518  8520     5 
 8515  8518  8521     5 
 8519  8518  8520     5 
 8519  8518  8521     5 
 8520  8518  8521     5 
 8518  8521  8522     5 
 8518  8521  8523     5 
 8518  8521  8524     5 
 8522  8521  8523     5 
 8522  8521  8524     5 
 8523  8521  8524     5 
 8521  8524  8525     5 
 8521  8524  8526     5 
 8521  8524  8527     5 
 8525  8524  8526     5 
 8525  8524  8527     5 
 8526  8524  8527     5 
 8524  8527  8528     5 
 8524  8527  8529     5 
 8524  8527  8530     5 
 8528  8527  8529     5 
 8528  8527  8530     5 
 8529  8527  8530     5 
 8527  8530  8531     5 
 8527  8530  8532     5 
 8527  8530  8533     5 
 8531  8530  8532     5 
 8531  8530  8533     5 
 8532  8530  8533     5 
 8484  8534  8535     5 
 8484  8534  8536     5 
 8484  8534  8537     5 
 8535  8534  8536     5 
 8535  8534  8537     5 
 8536  8534  8537     5 
 8534  8537  8538     5 
 8534  8537  8539     5 
 8534  8537  8540     5 
 8538  8537  8539     5 
 8538  8537  8540     5 
 8539  8537  8540     5 
 8537  8540  8541     5 
 8537  8540  8542     5 
 8537  8540  8543     5 
 8541  8540  8542     5 
 8541  8540  8543     5 
 8542  8540  8543     5 
 8540  8543  8544     5 
 8540  8543  8545     5 
 8540  8543  8546     5 
 8544  8543  8545     5 
 8544  8543  8546     5 
 8545  8543  8546     5 
 8543  8546  8547     5 
 8543  8546  8548     5 
 8543  8546  8549     5 
 8547  8546  8548     5 
 8547  8546  8549     5 
 8548  8546  8549     5 
 8546  8549  8550     5 
 8546  8549  8551     5 
 8546  8549  8552     5 
 8550  8549  8551     5 
 8550  8549  8552     5 
 8551  8549  8552     5 
 8549  8552  8553     5 
 8549  8552  8554     5 
 8549  8552  8555     5 
 8553  8552  8554     5 
 8553  8552  8555     5 
 8554  8552  8555     5 
 8552  8555  8556     5 
 8552  8555  8557     5 
 8552  8555  8558     5 
 8556  8555  8557     5 
 8556  8555  8558     5 
 8557  8555  8558     5 
 8555  8558  8559     5 
 8555  8558  8560     5 
 8555  8558  8561     5 
 8559  8558  8560     5 
 8559  8558  8561     5 
 8560  8558  8561     5 
 8558  8561  8562     5 
 8558  8561  8563     5 
 8558  8561  8564     5 
 8562  8561  8563     5 
 8562  8561  8564     5 
 8563  8561  8564     5 
 8561  8564  8565     5 
 8561  8564  8566     5 
 8561  8564  8567     5 
 8565  8564  8566     5 
 8565  8564  8567     5 
 8566  8564  8567     5 
 8564  8567  8568     5 
 8564  8567  8569     5 
 8564  8567  8570     5 
 8568  8567  8569     5 
 8568  8567  8570     5 
 8569  8567  8570     5 
 8567  8570  8571     5 
 8567  8570  8572     5 
 8567  8570  8573     5 
 8571  8570  8572     5 
 8571  8570  8573     5 
 8572  8570  8573     5 
 8570  8573  8574     5 
 8570  8573  8575     5 
 8570  8573  8576     5 
 8574  8573  8575     5 
 8574  8573  8576     5 
 8575  8573  8576     5 
 8578  8577  8581     5 
 8578  8577  8585     5 
 8578  8577  8589     5 
 8581  8577  8585     5 
 8581  8577  8589     5 
 8585  8577  8589     5 
 8577  8578  8579     5 
 8577  8578  8580     5 
 8577  8578  8593     5 
 8579  8578  8580     5 
 8579  8578  8593     5 
 8580  8578  8593     5 
 8577  8581  8582     5 
 8577  8581  8583     5 
 8577  8581  8584     5 
 8582  8581  8583     5 
 8582  8581  8584     5 
 8583  8581  8584     5 
 8577  8585  8586     5 
 8577  8585  8587     5 
 8577  8585  8588     5 
 8586  8585  8587     5 
 8586  8585  8588     5 
 8587  8585  8588     5 
 8577  8589  8590     5 
 8577  8589  8591     5 
 8577  8589  8592     5 
 8590  8589  8591     5 
 8590  8589  8592     5 
 8591  8589  8592     5 
 8578  8593  8594     5 
 8578  8593  8595     5 
 8578  8593  8599     5 
 8594  8593  8595     5 
 8594  8593  8599     5 
 8595  8593  8599     5 
 8597  8596  8598     5 
 8597  8596  8599     5 
 8597  8596  8600     5 
 8598  8596  8599     5 
 8598  8596  8600     5 
 8599  8596  8600     5 
 8593  8599  8596     5 
 8596  8600  8601     5 
 8600  8601  8602     5 
 8600  8601  8603     5 
 8600  8601  8604     5 
 8602  8601  8603     5 
 8602  8601  8604     5 
 8603  8601  8604     5 
 8601  8604  8605     5 
 8601  8604  8606     5 
 8601  8604  8612     5 
 8605  8604  8606     5 
 8605  8604  8612     5 
 8606  8604  8612     5 
 8604  8606  8607     5 
 8606  8607  8608     5 
 8606  8607  8609     5 
 8608  8607  8609     5 
 8607  8609  8610     5 
 8607  8609  8611     5 
 8607  8609  8621     5 
 8610  8609  8611     5 
 8610  8609  8621     5 
 8611  8609  8621     5 
 8604  8612  8613     5 
 8604  8612  8614     5 
 8604  8612  8615     5 
 8613  8612  8614     5 
 8613  8612  8615     5 
 8614  8612  8615     5 
 8612  8615  8616     5 
 8615  8616  8617     5 
 8615  8616  8618     5 
 8617  8616  8618     5 
 8616  8618  8619     5 
 8616  8618  8620     5 
 8616  8618  8668     5 
 8619  8618  8620     5 
 8619  8618  8668     5 
 8620  8618  8668     5 
 8609  8621  8622     5 
 8609  8621  8623     5 
 8609  8621  8624     5 
 8622  8621  8623     5 
 8622  8621  8624     5 
 8623  8621  8624     5 
 8621  8624  8625     5 
 8621  8624  8626     5 
 8621  8624  8627     5 
 8625  8624  8626     5 
 8625  8624  8627     5 
 8626  8624  8627     5 
 8624  8627  8628     5 
 8624  8627  8629     5 
 8624  8627  8630     5 
 8628  8627  8629     5 
 8628  8627  8630     5 
 8629  8627  8630     5 
 8627  8630  8631     5 
 8627  8630  8632     5 
 8627  8630  8633     5 
 8631  8630  8632     5 
 8631  8630  8633     5 
 8632  8630  8633     5 
 8630  8633  8634     5 
 8630  8633  8635     5 
 8630  8633  8636     5 
 8634  8633  8635     5 
 8634  8633  8636     5 
 8635  8633  8636     5 
 8633  8636  8637     5 
 8633  8636  8638     5 
 8633  8636  8639     5 
 8637  8636  8638     5 
 8637  8636  8639     5 
 8638  8636  8639     5 
 8636  8639  8640     5 
 8636  8639  8641     5 
 8640  8639  8641     5 
 8639  8641  8642     5 
 8639  8641  8643     5 
 8642  8641  8643     5 
 8641  8643  8644     5 
 8641  8643  8645     5 
 8641  8643  8646     5 
 8644  8643  8645     5 
 8644  8643  8646     5 
 8645  8643  8646     5 
 8643  8646  8647     5 
 8643  8646  8648     5 
 8643  8646  8649     5 
 8647  8646  8648     5 
 8647  8646  8649     5 
 8648  8646  8649     5 
 8646  8649  8650     5 
 8646  8649  8651     5 
 8646  8649  8652     5 
 8650  8649  8651     5 
 8650  8649  8652     5 
 8651  8649  8652     5 
 8649  8652  8653     5 
 8649  8652  8654     5 
 8649  8652  8655     5 
 8653  8652  8654     5 
 8653  8652  8655     5 
 8654  8652  8655     5 
 8652  8655  8656     5 
 8652  8655  8657     5 
 8652  8655  8658     5 
 8656  8655  8657     5 
 8656  8655  8658     5 
 8657  8655  8658     5 
 8655  8658  8659     5 
 8655  8658  8660     5 
 8655  8658  8661     5 
 8659  8658  8660     5 
 8659  8658  8661     5 
 8660  8658  8661     5 
 8658  8661  8662     5 
 8658  8661  8663     5 
 8658  8661  8664     5 
 8662  8661  8663     5 
 8662  8661  8664     5 
 8663  8661  8664     5 
 8661  8664  8665     5 
 8661  8664  8666     5 
 8661  8664  8667     5 
 8665  8664  8666     5 
 8665  8664  8667     5 
 8666  8664  8667     5 
 8618  8668  8669     5 
 8618  8668  8670     5 
 8618  8668  8671     5 
 8669  8668  8670     5 
 8669  8668  8671     5 
 8670  8668  8671     5 
 8668  8671  8672     5 
 8668  8671  8673     5 
 8668  8671  8674     5 
 8672  8671  8673     5 
 8672  8671  8674     5 
 8673  8671  8674     5 
 8671  8674  8675     5 
 8671  8674  8676     5 
 8671  8674  8677     5 
 8675  8674  8676     5 
 8675  8674  8677     5 
 8676  8674  8677     5 
 8674  8677  8678     5 
 8674  8677  8679     5 
 8674  8677  8680     5 
 8678  8677  8679     5 
 8678  8677  8680     5 
 8679  8677  8680     5 
 8677  8680  8681     5 
 8677  8680  8682     5 
 8677  8680  8683     5 
 8681  8680  8682     5 
 8681  8680  8683     5 
 8682  8680  8683     5 
 8680  8683  8684     5 
 8680  8683  8685     5 
 8680  8683  8686     5 
 8684  8683  8685     5 
 8684  8683  8686     5 
 8685  8683  8686     5 
 8683  8686  8687     5 
 8683  8686  8688     5 
 8683  8686  8689     5 
 8687  8686  8688     5 
 8687  8686  8689     5 
 8688  8686  8689     5 
 8686  8689  8690     5 
 8686  8689  8691     5 
 8686  8689  8692     5 
 8690  8689  8691     5 
 8690  8689  8692     5 
 8691  8689  8692     5 
 8689  8692  8693     5 
 8689  8692  8694     5 
 8689  8692  8695     5 
 8693  8692  8694     5 
 8693  8692  8695     5 
 8694  8692  8695     5 
 8692  8695  8696     5 
 8692  8695  8697     5 
 8692  8695  8698     5 
 8696  8695  8697     5 
 8696  8695  8698     5 
 8697  8695  8698     5 
 8695  8698  8699     5 
 8695  8698  8700     5 
 8695  8698  8701     5 
 8699  8698  8700     5 
 8699  8698  8701     5 
 8700  8698  8701     5 
 8698  8701  8702     5 
 8698  8701  8703     5 
 8698  8701  8704     5 
 8702  8701  8703     5 
 8702  8701  8704     5 
 8703  8701  8704     5 
 8701  8704  8705     5 
 8701  8704  8706     5 
 8701  8704  8707     5 
 8705  8704  8706     5 
 8705  8704  8707     5 
 8706  8704  8707     5 
 8704  8707  8708     5 
 8704  8707  8709     5 
 8704  8707  8710     5 
 8708  8707  8709     5 
 8708  8707  8710     5 
 8709  8707  8710     5 
 8712  8711  8715     5 
 8712  8711  8719     5 
 8712  8711  8723     5 
 8715  8711  8719     5 
 8715  8711  8723     5 
 8719  8711  8723     5 
 8711  8712  8713     5 
 8711  8712  8714     5 
 8711  8712  8727     5 
 8713  8712  8714     5 
 8713  8712  8727     5 
 8714  8712  8727     5 
 8711  8715  8716     5 
 8711  8715  8717     5 
 8711  8715  8718     5 
 8716  8715  8717     5 
 8716  8715  8718     5 
 8717  8715  8718     5 
 8711  8719  8720     5 
 8711  8719  8721     5 
 8711  8719  8722     5 
 8720  8719  8721     5 
 8720  8719  8722     5 
 8721  8719  8722     5 
 8711  8723  8724     5 
 8711  8723  8725     5 
 8711  8723  8726     5 
 8724  8723  8725     5 
 8724  8723  8726     5 
 8725  8723  8726     5 
 8712  8727  8728     5 
 8712  8727  8729     5 
 8712  8727  8733     5 
 8728  8727  8729     5 
 8728  8727  8733     5 
 8729  8727  8733     5 
 8731  8730  8732     5 
 8731  8730  8733     5 
 8731  8730  8734     5 
 8732  8730  8733     5 
 8732  8730  8734     5 
 8733  8730  8734     5 
 8727  8733  8730     5 
 8730  8734  8735     5 
 8734  8735  8736     5 
 8734  8735  8737     5 
 8734  8735  8738     5 
 8736  8735  8737     5 
 8736  8735  8738     5 
 8737  8735  8738     5 
 8735  8738  8739     5 
 8735  8738  8740     5 
 8735  8738  8746     5 
 8739  8738  8740     5 
 8739  8738  8746     5 
 8740  8738  8746     5 
 8738  8740  8741     5 
 8740  8741  8742     5 
 8740  8741  8743     5 
 8742  8741  8743     5 
 8741  8743  8744     5 
 8741  8743  8745     5 
 8741  8743  8755     5 
 8744  8743  8745     5 
 8744  8743  8755     5 
 8745  8743  8755     5 
 8738  8746  8747     5 
 8738  8746  8748     5 
 8738  8746  8749     5 
 8747  8746  8748     5 
 8747  8746  8749     5 
 8748  8746  8749     5 
 8746  8749  8750     5 
 8749  8750  8751     5 
 8749  8750  8752     5 
 8751  8750  8752     5 
 8750  8752  8753     5 
 8750  8752  8754     5 
 8750  8752  8802     5 
 8753  8752  8754     5 
 8753  8752  8802     5 
 8754  8752  8802     5 
 8743  8755  8756     5 
 8743  8755  8757     5 
 8743  8755  8758     5 
 8756  8755  8757     5 
 8756  8755  8758     5 
 8757  8755  8758     5 
 8755  8758  8759     5 
 8755  8758  8760     5 
 8755  8758  8761     5 
 8759  8758  8760     5 
 8759  8758  8761     5 
 8760  8758  8761     5 
 8758  8761  8762     5 
 8758  8761  8763     5 
 8758  8761  8764     5 
 8762  8761  8763     5 
 8762  8761  8764     5 
 8763  8761  8764     5 
 8761  8764  8765     5 
 8761  8764  8766     5 
 8761  8764  8767     5 
 8765  8764  8766     5 
 8765  8764  8767     5 
 8766  8764  8767     5 
 8764  8767  8768     5 
 8764  8767  8769     5 
 8764  8767  8770     5 
 8768  8767  8769     5 
 8768  8767  8770     5 
 8769  8767  8770     5 
 8767  8770  8771     5 
 8767  8770  8772     5 
 8767  8770  8773     5 
 8771  8770  8772     5 
 8771  8770  8773     5 
 8772  8770  8773     5 
 8770  8773  8774     5 
 8770  8773  8775     5 
 8774  8773  8775     5 
 8773  8775  8776     5 
 8773  8775  8777     5 
 8776  8775  8777     5 
 8775  8777  8778     5 
 8775  8777  8779     5 
 8775  8777  8780     5 
 8778  8777  8779     5 
 8778  8777  8780     5 
 8779  8777  8780     5 
 8777  8780  8781     5 
 8777  8780  8782     5 
 8777  8780  8783     5 
 8781  8780  8782     5 
 8781  8780  8783     5 
 8782  8780  8783     5 
 8780  8783  8784     5 
 8780  8783  8785     5 
 8780  8783  8786     5 
 8784  8783  8785     5 
 8784  8783  8786     5 
 8785  8783  8786     5 
 8783  8786  8787     5 
 8783  8786  8788     5 
 8783  8786  8789     5 
 8787  8786  8788     5 
 8787  8786  8789     5 
 8788  8786  8789     5 
 8786  8789  8790     5 
 8786  8789  8791     5 
 8786  8789  8792     5 
 8790  8789  8791     5 
 8790  8789  8792     5 
 8791  8789  8792     5 
 8789  8792  8793     5 
 8789  8792  8794     5 
 8789  8792  8795     5 
 8793  8792  8794     5 
 8793  8792  8795     5 
 8794  8792  8795     5 
 8792  8795  8796     5 
 8792  8795  8797     5 
 8792  8795  8798     5 
 8796  8795  8797     5 
 8796  8795  8798     5 
 8797  8795  8798     5 
 8795  8798  8799     5 
 8795  8798  8800     5 
 8795  8798  8801     5 
 8799  8798  8800     5 
 8799  8798  8801     5 
 8800  8798  8801     5 
 8752  8802  8803     5 
 8752  8802  8804     5 
 8752  8802  8805     5 
 8803  8802  8804     5 
 8803  8802  8805     5 
 8804  8802  8805     5 
 8802  8805  8806     5 
 8802  8805  8807     5 
 8802  8805  8808     5 
 8806  8805  8807     5 
 8806  8805  8808     5 
 8807  8805  8808     5 
 8805  8808  8809     5 
 8805  8808  8810     5 
 8805  8808  8811     5 
 8809  8808  8810     5 
 8809  8808  8811     5 
 8810  8808  8811     5 
 8808  8811  8812     5 
 8808  8811  8813     5 
 8808  8811  8814     5 
 8812  8811  8813     5 
 8812  8811  8814     5 
 8813  8811  8814     5 
 8811  8814  8815     5 
 8811  8814  8816     5 
 8811  8814  8817     5 
 8815  8814  8816     5 
 8815  8814  8817     5 
 8816  8814  8817     5 
 8814  8817  8818     5 
 8814  8817  8819     5 
 8814  8817  8820     5 
 8818  8817  8819     5 
 8818  8817  8820     5 
 8819  8817  8820     5 
 8817  8820  8821     5 
 8817  8820  8822     5 
 8817  8820  8823     5 
 8821  8820  8822     5 
 8821  8820  8823     5 
 8822  8820  8823     5 
 8820  8823  8824     5 
 8820  8823  8825     5 
 8820  8823  8826     5 
 8824  8823  8825     5 
 8824  8823  8826     5 
 8825  8823  8826     5 
 8823  8826  8827     5 
 8823  8826  8828     5 
 8823  8826  8829     5 
 8827  8826  8828     5 
 8827  8826  8829     5 
 8828  8826  8829     5 
 8826  8829  8830     5 
 8826  8829  8831     5 
 8826  8829  8832     5 
 8830  8829  8831     5 
 8830  8829  8832     5 
 8831  8829  8832     5 
 8829  8832  8833     5 
 8829  8832  8834     5 
 8829  8832  8835     5 
 8833  8832  8834     5 
 8833  8832  8835     5 
 8834  8832  8835     5 
 8832  8835  8836     5 
 8832  8835  8837     5 
 8832  8835  8838     5 
 8836  8835  8837     5 
 8836  8835  8838     5 
 8837  8835  8838     5 
 8835  8838  8839     5 
 8835  8838  8840     5 
 8835  8838  8841     5 
 8839  8838  8840     5 
 8839  8838  8841     5 
 8840  8838  8841     5 
 8838  8841  8842     5 
 8838  8841  8843     5 
 8838  8841  8844     5 
 8842  8841  8843     5 
 8842  8841  8844     5 
 8843  8841  8844     5 
 8846  8845  8849     5 
 8846  8845  8853     5 
 8846  8845  8857     5 
 8849  8845  8853     5 
 8849  8845  8857     5 
 8853  8845  8857     5 
 8845  8846  8847     5 
 8845  8846  8848     5 
 8845  8846  8861     5 
 8847  8846  8848     5 
 8847  8846  8861     5 
 8848  8846  8861     5 
 8845  8849  8850     5 
 8845  8849  8851     5 
 8845  8849  8852     5 
 8850  8849  8851     5 
 8850  8849  8852     5 
 8851  8849  8852     5 
 8845  8853  8854     5 
 8845  8853  8855     5 
 8845  8853  8856     5 
 8854  8853  8855     5 
 8854  8853  8856     5 
 8855  8853  8856     5 
 8845  8857  8858     5 
 8845  8857  8859     5 
 8845  8857  8860     5 
 8858  8857  8859     5 
 8858  8857  8860     5 
 8859  8857  8860     5 
 8846  8861  8862     5 
 8846  8861  8863     5 
 8846  8861  8867     5 
 8862  8861  8863     5 
 8862  8861  8867     5 
 8863  8861  8867     5 
 8865  8864  8866     5 
 8865  8864  8867     5 
 8865  8864  8868     5 
 8866  8864  8867     5 
 8866  8864  8868     5 
 8867  8864  8868     5 
 8861  8867  8864     5 
 8864  8868  8869     5 
 8868  8869  8870     5 
 8868  8869  8871     5 
 8868  8869  8872     5 
 8870  8869  8871     5 
 8870  8869  8872     5 
 8871  8869  8872     5 
 8869  8872  8873     5 
 8869  8872  8874     5 
 8869  8872  8880     5 
 8873  8872  8874     5 
 8873  8872  8880     5 
 8874  8872  8880     5 
 8872  8874  8875     5 
 8874  8875  8876     5 
 8874  8875  8877     5 
 8876  8875  8877     5 
 8875  8877  8878     5 
 8875  8877  8879     5 
 8875  8877  8889     5 
 8878  8877  8879     5 
 8878  8877  8889     5 
 8879  8877  8889     5 
 8872  8880  8881     5 
 8872  8880  8882     5 
 8872  8880  8883     5 
 8881  8880  8882     5 
 8881  8880  8883     5 
 8882  8880  8883     5 
 8880  8883  8884     5 
 8883  8884  8885     5 
 8883  8884  8886     5 
 8885  8884  8886     5 
 8884  8886  8887     5 
 8884  8886  8888     5 
 8884  8886  8936     5 
 8887  8886  8888     5 
 8887  8886  8936     5 
 8888  8886  8936     5 
 8877  8889  8890     5 
 8877  8889  8891     5 
 8877  8889  8892     5 
 8890  8889  8891     5 
 8890  8889  8892     5 
 8891  8889  8892     5 
 8889  8892  8893     5 
 8889  8892  8894     5 
 8889  8892  8895     5 
 8893  8892  8894     5 
 8893  8892  8895     5 
 8894  8892  8895     5 
 8892  8895  8896     5 
 8892  8895  8897     5 
 8892  8895  8898     5 
 8896  8895  8897     5 
 8896  8895  8898     5 
 8897  8895  8898     5 
 8895  8898  8899     5 
 8895  8898  8900     5 
 8895  8898  8901     5 
 8899  8898  8900     5 
 8899  8898  8901     5 
 8900  8898  8901     5 
 8898  8901  8902     5 
 8898  8901  8903     5 
 8898  8901  8904     5 
 8902  8901  8903     5 
 8902  8901  8904     5 
 8903  8901  8904     5 
 8901  8904  8905     5 
 8901  8904  8906     5 
 8901  8904  8907     5 
 8905  8904  8906     5 
 8905  8904  8907     5 
 8906  8904  8907     5 
 8904  8907  8908     5 
 8904  8907  8909     5 
 8908  8907  8909     5 
 8907  8909  8910     5 
 8907  8909  8911     5 
 8910  8909  8911     5 
 8909  8911  8912     5 
 8909  8911  8913     5 
 8909  8911  8914     5 
 8912  8911  8913     5 
 8912  8911  8914     5 
 8913  8911  8914     5 
 8911  8914  8915     5 
 8911  8914  8916     5 
 8911  8914  8917     5 
 8915  8914  8916     5 
 8915  8914  8917     5 
 8916  8914  8917     5 
 8914  8917  8918     5 
 8914  8917  8919     5 
 8914  8917  8920     5 
 8918  8917  8919     5 
 8918  8917  8920     5 
 8919  8917  8920     5 
 8917  8920  8921     5 
 8917  8920  8922     5 
 8917  8920  8923     5 
 8921  8920  8922     5 
 8921  8920  8923     5 
 8922  8920  8923     5 
 8920  8923  8924     5 
 8920  8923  8925     5 
 8920  8923  8926     5 
 8924  8923  8925     5 
 8924  8923  8926     5 
 8925  8923  8926     5 
 8923  8926  8927     5 
 8923  8926  8928     5 
 8923  8926  8929     5 
 8927  8926  8928     5 
 8927  8926  8929     5 
 8928  8926  8929     5 
 8926  8929  8930     5 
 8926  8929  8931     5 
 8926  8929  8932     5 
 8930  8929  8931     5 
 8930  8929  8932     5 
 8931  8929  8932     5 
 8929  8932  8933     5 
 8929  8932  8934     5 
 8929  8932  8935     5 
 8933  8932  8934     5 
 8933  8932  8935     5 
 8934  8932  8935     5 
 8886  8936  8937     5 
 8886  8936  8938     5 
 8886  8936  8939     5 
 8937  8936  8938     5 
 8937  8936  8939     5 
 8938  8936  8939     5 
 8936  8939  8940     5 
 8936  8939  8941     5 
 8936  8939  8942     5 
 8940  8939  8941     5 
 8940  8939  8942     5 
 8941  8939  8942     5 
 8939  8942  8943     5 
 8939  8942  8944     5 
 8939  8942  8945     5 
 8943  8942  8944     5 
 8943  8942  8945     5 
 8944  8942  8945     5 
 8942  8945  8946     5 
 8942  8945  8947     5 
 8942  8945  8948     5 
 8946  8945  8947     5 
 8946  8945  8948     5 
 8947  8945  8948     5 
 8945  8948  8949     5 
 8945  8948  8950     5 
 8945  8948  8951     5 
 8949  8948  8950     5 
 8949  8948  8951     5 
 8950  8948  8951     5 
 8948  8951  8952     5 
 8948  8951  8953     5 
 8948  8951  8954     5 
 8952  8951  8953     5 
 8952  8951  8954     5 
 8953  8951  8954     5 
 8951  8954  8955     5 
 8951  8954  8956     5 
 8951  8954  8957     5 
 8955  8954  8956     5 
 8955  8954  8957     5 
 8956  8954  8957     5 
 8954  8957  8958     5 
 8954  8957  8959     5 
 8954  8957  8960     5 
 8958  8957  8959     5 
 8958  8957  8960     5 
 8959  8957  8960     5 
 8957  8960  8961     5 
 8957  8960  8962     5 
 8957  8960  8963     5 
 8961  8960  8962     5 
 8961  8960  8963     5 
 8962  8960  8963     5 
 8960  8963  8964     5 
 8960  8963  8965     5 
 8960  8963  8966     5 
 8964  8963  8965     5 
 8964  8963  8966     5 
 8965  8963  8966     5 
 8963  8966  8967     5 
 8963  8966  8968     5 
 8963  8966  8969     5 
 8967  8966  8968     5 
 8967  8966  8969     5 
 8968  8966  8969     5 
 8966  8969  8970     5 
 8966  8969  8971     5 
 8966  8969  8972     5 
 8970  8969  8971     5 
 8970  8969  8972     5 
 8971  8969  8972     5 
 8969  8972  8973     5 
 8969  8972  8974     5 
 8969  8972  8975     5 
 8973  8972  8974     5 
 8973  8972  8975     5 
 8974  8972  8975     5 
 8972  8975  8976     5 
 8972  8975  8977     5 
 8972  8975  8978     5 
 8976  8975  8977     5 
 8976  8975  8978     5 
 8977  8975  8978     5 
 8980  8979  8983     5 
 8980  8979  8987     5 
 8980  8979  8991     5 
 8983  8979  8987     5 
 8983  8979  8991     5 
 8987  8979  8991     5 
 8979  8980  8981     5 
 8979  8980  8982     5 
 8979  8980  8995     5 
 8981  8980  8982     5 
 8981  8980  8995     5 
 8982  8980  8995     5 
 8979  8983  8984     5 
 8979  8983  8985     5 
 8979  8983  8986     5 
 8984  8983  8985     5 
 8984  8983  8986     5 
 8985  8983  8986     5 
 8979  8987  8988     5 
 8979  8987  8989     5 
 8979  8987  8990     5 
 8988  8987  8989     5 
 8988  8987  8990     5 
 8989  8987  8990     5 
 8979  8991  8992     5 
 8979  8991  8993     5 
 8979  8991  8994     5 
 8992  8991  8993     5 
 8992  8991  8994     5 
 8993  8991  8994     5 
 8980  8995  8996     5 
 8980  8995  8997     5 
 8980  8995  9001     5 
 8996  8995  8997     5 
 8996  8995  9001     5 
 8997  8995  9001     5 
 8999  8998  9000     5 
 8999  8998  9001     5 
 8999  8998  9002     5 
 9000  8998  9001     5 
 9000  8998  9002     5 
 9001  8998  9002     5 
 8995  9001  8998     5 
 8998  9002  9003     5 
 9002  9003  9004     5 
 9002  9003  9005     5 
 9002  9003  9006     5 
 9004  9003  9005     5 
 9004  9003  9006     5 
 9005  9003  9006     5 
 9003  9006  9007     5 
 9003  9006  9008     5 
 9003  9006  9014     5 
 9007  9006  9008     5 
 9007  9006  9014     5 
 9008  9006  9014     5 
 9006  9008  9009     5 
 9008  9009  9010     5 
 9008  9009  9011     5 
 9010  9009  9011     5 
 9009  9011  9012     5 
 9009  9011  9013     5 
 9009  9011  9023     5 
 9012  9011  9013     5 
 9012  9011  9023     5 
 9013  9011  9023     5 
 9006  9014  9015     5 
 9006  9014  9016     5 
 9006  9014  9017     5 
 9015  9014  9016     5 
 9015  9014  9017     5 
 9016  9014  9017     5 
 9014  9017  9018     5 
 9017  9018  9019     5 
 9017  9018  9020     5 
 9019  9018  9020     5 
 9018  9020  9021     5 
 9018  9020  9022     5 
 9018  9020  9070     5 
 9021  9020  9022     5 
 9021  9020  9070     5 
 9022  9020  9070     5 
 9011  9023  9024     5 
 9011  9023  9025     5 
 9011  9023  9026     5 
 9024  9023  9025     5 
 9024  9023  9026     5 
 9025  9023  9026     5 
 9023  9026  9027     5 
 9023  9026  9028     5 
 9023  9026  9029     5 
 9027  9026  9028     5 
 9027  9026  9029     5 
 9028  9026  9029     5 
 9026  9029  9030     5 
 9026  9029  9031     5 
 9026  9029  9032     5 
 9030  9029  9031     5 
 9030  9029  9032     5 
 9031  9029  9032     5 
 9029  9032  9033     5 
 9029  9032  9034     5 
 9029  9032  9035     5 
 9033  9032  9034     5 
 9033  9032  9035     5 
 9034  9032  9035     5 
 9032  9035  9036     5 
 9032  9035  9037     5 
 9032  9035  9038     5 
 9036  9035  9037     5 
 9036  9035  9038     5 
 9037  9035  9038     5 
 9035  9038  9039     5 
 9035  9038  9040     5 
 9035  9038  9041     5 
 9039  9038  9040     5 
 9039  9038  9041     5 
 9040  9038  9041     5 
 9038  9041  9042     5 
 9038  9041  9043     5 
 9042  9041  9043     5 
 9041  9043  9044     5 
 9041  9043  9045     5 
 9044  9043  9045     5 
 9043  9045  9046     5 
 9043  9045  9047     5 
 9043  9045  9048     5 
 9046  9045  9047     5 
 9046  9045  9048     5 
 9047  9045  9048     5 
 9045  9048  9049     5 
 9045  9048  9050     5 
 9045  9048  9051     5 
 9049  9048  9050     5 
 9049  9048  9051     5 
 9050  9048  9051     5 
 9048  9051  9052     5 
 9048  9051  9053     5 
 9048  9051  9054     5 
 9052  9051  9053     5 
 9052  9051  9054     5 
 9053  9051  9054     5 
 9051  9054  9055     5 
 9051  9054  9056     5 
 9051  9054  9057     5 
 9055  9054  9056     5 
 9055  9054  9057     5 
 9056  9054  9057     5 
 9054  9057  9058     5 
 9054  9057  9059     5 
 9054  9057  9060     5 
 9058  9057  9059     5 
 9058  9057  9060     5 
 9059  9057  9060     5 
 9057  9060  9061     5 
 9057  9060  9062     5 
 9057  9060  9063     5 
 9061  9060  9062     5 
 9061  9060  9063     5 
 9062  9060  9063     5 
 9060  9063  9064     5 
 9060  9063  9065     5 
 9060  9063  9066     5 
 9064  9063  9065     5 
 9064  9063  9066     5 
 9065  9063  9066     5 
 9063  9066  9067     5 
 9063  9066  9068     5 
 9063  9066  9069     5 
 9067  9066  9068     5 
 9067  9066  9069     5 
 9068  9066  9069     5 
 9020  9070  9071     5 
 9020  9070  9072     5 
 9020  9070  9073     5 
 9071  9070  9072     5 
 9071  9070  9073     5 
 9072  9070  9073     5 
 9070  9073  9074     5 
 9070  9073  9075     5 
 9070  9073  9076     5 
 9074  9073  9075     5 
 9074  9073  9076     5 
 9075  9073  9076     5 
 9073  9076  9077     5 
 9073  9076  9078     5 
 9073  9076  9079     5 
 9077  9076  9078     5 
 9077  9076  9079     5 
 9078  9076  9079     5 
 9076  9079  9080     5 
 9076  9079  9081     5 
 9076  9079  9082     5 
 9080  9079  9081     5 
 9080  9079  9082     5 
 9081  9079  9082     5 
 9079  9082  9083     5 
 9079  9082  9084     5 
 9079  9082  9085     5 
 9083  9082  9084     5 
 9083  9082  9085     5 
 9084  9082  9085     5 
 9082  9085  9086     5 
 9082  9085  9087     5 
 9082  9085  9088     5 
 9086  9085  9087     5 
 9086  9085  9088     5 
 9087  9085  9088     5 
 9085  9088  9089     5 
 9085  9088  9090     5 
 9085  9088  9091     5 
 9089  9088  9090     5 
 9089  9088  9091     5 
 9090  9088  9091     5 
 9088  9091  9092     5 
 9088  9091  9093     5 
 9088  9091  9094     5 
 9092  9091  9093     5 
 9092  9091  9094     5 
 9093  9091  9094     5 
 9091  9094  9095     5 
 9091  9094  9096     5 
 9091  9094  9097     5 
 9095  9094  9096     5 
 9095  9094  9097     5 
 9096  9094  9097     5 
 9094  9097  9098     5 
 9094  9097  9099     5 
 9094  9097  9100     5 
 9098  9097  9099     5 
 9098  9097  9100     5 
 9099  9097  9100     5 
 9097  9100  9101     5 
 9097  9100  9102     5 
 9097  9100  9103     5 
 9101  9100  9102     5 
 9101  9100  9103     5 
 9102  9100  9103     5 
 9100  9103  9104     5 
 9100  9103  9105     5 
 9100  9103  9106     5 
 9104  9103  9105     5 
 9104  9103  9106     5 
 9105  9103  9106     5 
 9103  9106  9107     5 
 9103  9106  9108     5 
 9103  9106  9109     5 
 9107  9106  9108     5 
 9107  9106  9109     5 
 9108  9106  9109     5 
 9106  9109  9110     5 
 9106  9109  9111     5 
 9106  9109  9112     5 
 9110  9109  9111     5 
 9110  9109  9112     5 
 9111  9109  9112     5 
 9114  9113  9117     5 
 9114  9113  9121     5 
 9114  9113  9125     5 
 9117  9113  9121     5 
 9117  9113  9125     5 
 9121  9113  9125     5 
 9113  9114  9115     5 
 9113  9114  9116     5 
 9113  9114  9129     5 
 9115  9114  9116     5 
 9115  9114  9129     5 
 9116  9114  9129     5 
 9113  9117  9118     5 
 9113  9117  9119     5 
 9113  9117  9120     5 
 9118  9117  9119     5 
 9118  9117  9120     5 
 9119  9117  9120     5 
 9113  9121  9122     5 
 9113  9121  9123     5 
 9113  9121  9124     5 
 9122  9121  9123     5 
 9122  9121  9124     5 
 9123  9121  9124     5 
 9113  9125  9126     5 
 9113  9125  9127     5 
 9113  9125  9128     5 
 9126  9125  9127     5 
 9126  9125  9128     5 
 9127  9125  9128     5 
 9114  9129  9130     5 
 9114  9129  9131     5 
 9114  9129  9135     5 
 9130  9129  9131     5 
 9130  9129  9135     5 
 9131  9129  9135     5 
 9133  9132  9134     5 
 9133  9132  9135     5 
 9133  9132  9136     5 
 9134  9132  9135     5 
 9134  9132  9136     5 
 9135  9132  9136     5 
 9129  9135  9132     5 
 9132  9136  9137     5 
 9136  9137  9138     5 
 9136  9137  9139     5 
 9136  9137  9140     5 
 9138  9137  9139     5 
 9138  9137  9140     5 
 9139  9137  9140     5 
 9137  9140  9141     5 
 9137  9140  9142     5 
 9137  9140  9148     5 
 9141  9140  9142     5 
 9141  9140  9148     5 
 9142  9140  9148     5 
 9140  9142  9143     5 
 9142  9143  9144     5 
 9142  9143  9145     5 
 9144  9143  9145     5 
 9143  9145  9146     5 
 9143  9145  9147     5 
 9143  9145  9157     5 
 9146  9145  9147     5 
 9146  9145  9157     5 
 9147  9145  9157     5 
 9140  9148  9149     5 
 9140  9148  9150     5 
 9140  9148  9151     5 
 9149  9148  9150     5 
 9149  9148  9151     5 
 9150  9148  9151     5 
 9148  9151  9152     5 
 9151  9152  9153     5 
 9151  9152  9154     5 
 9153  9152  9154     5 
 9152  9154  9155     5 
 9152  9154  9156     5 
 9152  9154  9204     5 
 9155  9154  9156     5 
 9155  9154  9204     5 
 9156  9154  9204     5 
 9145  9157  9158     5 
 9145  9157  9159     5 
 9145  9157  9160     5 
 9158  9157  9159     5 
 9158  9157  9160     5 
 9159  9157  9160     5 
 9157  9160  9161     5 
 9157  9160  9162     5 
 9157  9160  9163     5 
 9161  9160  9162     5 
 9161  9160  9163     5 
 9162  9160  9163     5 
 9160  9163  9164     5 
 9160  9163  9165     5 
 9160  9163  9166     5 
 9164  9163  9165     5 
 9164  9163  9166     5 
 9165  9163  9166     5 
 9163  9166  9167     5 
 9163  9166  9168     5 
 9163  9166  9169     5 
 9167  9166  9168     5 
 9167  9166  9169     5 
 9168  9166  9169     5 
 9166  9169  9170     5 
 9166  9169  9171     5 
 9166  9169  9172     5 
 9170  9169  9171     5 
 9170  9169  9172     5 
 9171  9169  9172     5 
 9169  9172  9173     5 
 9169  9172  9174     5 
 9169  9172  9175     5 
 9173  9172  9174     5 
 9173  9172  9175     5 
 9174  9172  9175     5 
 9172  9175  9176     5 
 9172  9175  9177     5 
 9176  9175  9177     5 
 9175  9177  9178     5 
 9175  9177  9179     5 
 9178  9177  9179     5 
 9177  9179  9180     5 
 9177  9179  9181     5 
 9177  9179  9182     5 
 9180  9179  9181     5 
 9180  9179  9182     5 
 9181  9179  9182     5 
 9179  9182  9183     5 
 9179  9182  9184     5 
 9179  9182  9185     5 
 9183  9182  9184     5 
 9183  9182  9185     5 
 9184  9182  9185     5 
 9182  9185  9186     5 
 9182  9185  9187     5 
 9182  9185  9188     5 
 9186  9185  9187     5 
 9186  9185  9188     5 
 9187  9185  9188     5 
 9185  9188  9189     5 
 9185  9188  9190     5 
 9185  9188  9191     5 
 9189  9188  9190     5 
 9189  9188  9191     5 
 9190  9188  9191     5 
 9188  9191  9192     5 
 9188  9191  9193     5 
 9188  9191  9194     5 
 9192  9191  9193     5 
 9192  9191  9194     5 
 9193  9191  9194     5 
 9191  9194  9195     5 
 9191  9194  9196     5 
 9191  9194  9197     5 
 9195  9194  9196     5 
 9195  9194  9197     5 
 9196  9194  9197     5 
 9194  9197  9198     5 
 9194  9197  9199     5 
 9194  9197  9200     5 
 9198  9197  9199     5 
 9198  9197  9200     5 
 9199  9197  9200     5 
 9197  9200  9201     5 
 9197  9200  9202     5 
 9197  9200  9203     5 
 9201  9200  9202     5 
 9201  9200  9203     5 
 9202  9200  9203     5 
 9154  9204  9205     5 
 9154  9204  9206     5 
 9154  9204  9207     5 
 9205  9204  9206     5 
 9205  9204  9207     5 
 9206  9204  9207     5 
 9204  9207  9208     5 
 9204  9207  9209     5 
 9204  9207  9210     5 
 9208  9207  9209     5 
 9208  9207  9210     5 
 9209  9207  9210     5 
 9207  9210  9211     5 
 9207  9210  9212     5 
 9207  9210  9213     5 
 9211  9210  9212     5 
 9211  9210  9213     5 
 9212  9210  9213     5 
 9210  9213  9214     5 
 9210  9213  9215     5 
 9210  9213  9216     5 
 9214  9213  9215     5 
 9214  9213  9216     5 
 9215  9213  9216     5 
 9213  9216  9217     5 
 9213  9216  9218     5 
 9213  9216  9219     5 
 9217  9216  9218     5 
 9217  9216  9219     5 
 9218  9216  9219     5 
 9216  9219  9220     5 
 9216  9219  9221     5 
 9216  9219  9222     5 
 9220  9219  9221     5 
 9220  9219  9222     5 
 9221  9219  9222     5 
 9219  9222  9223     5 
 9219  9222  9224     5 
 9219  9222  9225     5 
 9223  9222  9224     5 
 9223  9222  9225     5 
 9224  9222  9225     5 
 9222  9225  9226     5 
 9222  9225  9227     5 
 9222  9225  9228     5 
 9226  9225  9227     5 
 9226  9225  9228     5 
 9227  9225  9228     5 
 9225  9228  9229     5 
 9225  9228  9230     5 
 9225  9228  9231     5 
 9229  9228  9230     5 
 9229  9228  9231     5 
 9230  9228  9231     5 
 9228  9231  9232     5 
 9228  9231  9233     5 
 9228  9231  9234     5 
 9232  9231  9233     5 
 9232  9231  9234     5 
 9233  9231  9234     5 
 9231  9234  9235     5 
 9231  9234  9236     5 
 9231  9234  9237     5 
 9235  9234  9236     5 
 9235  9234  9237     5 
 9236  9234  9237     5 
 9234  9237  9238     5 
 9234  9237  9239     5 
 9234  9237  9240     5 
 9238  9237  9239     5 
 9238  9237  9240     5 
 9239  9237  9240     5 
 9237  9240  9241     5 
 9237  9240  9242     5 
 9237  9240  9243     5 
 9241  9240  9242     5 
 9241  9240  9243     5 
 9242  9240  9243     5 
 9240  9243  9244     5 
 9240  9243  9245     5 
 9240  9243  9246     5 
 9244  9243  9245     5 
 9244  9243  9246     5 
 9245  9243  9246     5 
 9248  9247  9251     5 
 9248  9247  9255     5 
 9248  9247  9259     5 
 9251  9247  9255     5 
 9251  9247  9259     5 
 9255  9247  9259     5 
 9247  9248  9249     5 
 9247  9248  9250     5 
 9247  9248  9263     5 
 9249  9248  9250     5 
 9249  9248  9263     5 
 9250  9248  9263     5 
 9247  9251  9252     5 
 9247  9251  9253     5 
 9247  9251  9254     5 
 9252  9251  9253     5 
 9252  9251  9254     5 
 9253  9251  9254     5 
 9247  9255  9256     5 
 9247  9255  9257     5 
 9247  9255  9258     5 
 9256  9255  9257     5 
 9256  9255  9258     5 
 9257  9255  9258     5 
 9247  9259  9260     5 
 9247  9259  9261     5 
 9247  9259  9262     5 
 9260  9259  9261     5 
 9260  9259  9262     5 
 9261  9259  9262     5 
 9248  9263  9264     5 
 9248  9263  9265     5 
 9248  9263  9269     5 
 9264  9263  9265     5 
 9264  9263  9269     5 
 9265  9263  9269     5 
 9267  9266  9268     5 
 9267  9266  9269     5 
 9267  9266  9270     5 
 9268  9266  9269     5 
 9268  9266  9270     5 
 9269  9266  9270     5 
 9263  9269  9266     5 
 9266  9270  9271     5 
 9270  9271  9272     5 
 9270  9271  9273     5 
 9270  9271  9274     5 
 9272  9271  9273     5 
 9272  9271  9274     5 
 9273  9271  9274     5 
 9271  9274  9275     5 
 9271  9274  9276     5 
 9271  9274  9282     5 
 9275  9274  9276     5 
 9275  9274  9282     5 
 9276  9274  9282     5 
 9274  9276  9277     5 
 9276  9277  9278     5 
 9276  9277  9279     5 
 9278  9277  9279     5 
 9277  9279  9280     5 
 9277  9279  9281     5 
 9277  9279  9291     5 
 9280  9279  9281     5 
 9280  9279  9291     5 
 9281  9279  9291     5 
 9274  9282  9283     5 
 9274  9282  9284     5 
 9274  9282  9285     5 
 9283  9282  9284     5 
 9283  9282  9285     5 
 9284  9282  9285     5 
 9282  9285  9286     5 
 9285  9286  9287     5 
 9285  9286  9288     5 
 9287  9286  9288     5 
 9286  9288  9289     5 
 9286  9288  9290     5 
 9286  9288  9338     5 
 9289  9288  9290     5 
 9289  9288  9338     5 
 9290  9288  9338     5 
 9279  9291  9292     5 
 9279  9291  9293     5 
 9279  9291  9294     5 
 9292  9291  9293     5 
 9292  9291  9294     5 
 9293  9291  9294     5 
 9291  9294  9295     5 
 9291  9294  9296     5 
 9291  9294  9297     5 
 9295  9294  9296     5 
 9295  9294  9297     5 
 9296  9294  9297     5 
 9294  9297  9298     5 
 9294  9297  9299     5 
 9294  9297  9300     5 
 9298  9297  9299     5 
 9298  9297  9300     5 
 9299  9297  9300     5 
 9297  9300  9301     5 
 9297  9300  9302     5 
 9297  9300  9303     5 
 9301  9300  9302     5 
 9301  9300  9303     5 
 9302  9300  9303     5 
 9300  9303  9304     5 
 9300  9303  9305     5 
 9300  9303  9306     5 
 9304  9303  9305     5 
 9304  9303  9306     5 
 9305  9303  9306     5 
 9303  9306  9307     5 
 9303  9306  9308     5 
 9303  9306  9309     5 
 9307  9306  9308     5 
 9307  9306  9309     5 
 9308  9306  9309     5 
 9306  9309  9310     5 
 9306  9309  9311     5 
 9310  9309  9311     5 
 9309  9311  9312     5 
 9309  9311  9313     5 
 9312  9311  9313     5 
 9311  9313  9314     5 
 9311  9313  9315     5 
 9311  9313  9316     5 
 9314  9313  9315     5 
 9314  9313  9316     5 
 9315  9313  9316     5 
 9313  9316  9317     5 
 9313  9316  9318     5 
 9313  9316  9319     5 
 9317  9316  9318     5 
 9317  9316  9319     5 
 9318  9316  9319     5 
 9316  9319  9320     5 
 9316  9319  9321     5 
 9316  9319  9322     5 
 9320  9319  9321     5 
 9320  9319  9322     5 
 9321  9319  9322     5 
 9319  9322  9323     5 
 9319  9322  9324     5 
 9319  9322  9325     5 
 9323  9322  9324     5 
 9323  9322  9325     5 
 9324  9322  9325     5 
 9322  9325  9326     5 
 9322  9325  9327     5 
 9322  9325  9328     5 
 9326  9325  9327     5 
 9326  9325  9328     5 
 9327  9325  9328     5 
 9325  9328  9329     5 
 9325  9328  9330     5 
 9325  9328  9331     5 
 9329  9328  9330     5 
 9329  9328  9331     5 
 9330  9328  9331     5 
 9328  9331  9332     5 
 9328  9331  9333     5 
 9328  9331  9334     5 
 9332  9331  9333     5 
 9332  9331  9334     5 
 9333  9331  9334     5 
 9331  9334  9335     5 
 9331  9334  9336     5 
 9331  9334  9337     5 
 9335  9334  9336     5 
 9335  9334  9337     5 
 9336  9334  9337     5 
 9288  9338  9339     5 
 9288  9338  9340     5 
 9288  9338  9341     5 
 9339  9338  9340     5 
 9339  9338  9341     5 
 9340  9338  9341     5 
 9338  9341  9342     5 
 9338  9341  9343     5 
 9338  9341  9344     5 
 9342  9341  9343     5 
 9342  9341  9344     5 
 9343  9341  9344     5 
 9341  9344  9345     5 
 9341  9344  9346     5 
 9341  9344  9347     5 
 9345  9344  9346     5 
 9345  9344  9347     5 
 9346  9344  9347     5 
 9344  9347  9348     5 
 9344  9347  9349     5 
 9344  9347  9350     5 
 9348  9347  9349     5 
 9348  9347  9350     5 
 9349  9347  9350     5 
 9347  9350  9351     5 
 9347  9350  9352     5 
 9347  9350  9353     5 
 9351  9350  9352     5 
 9351  9350  9353     5 
 9352  9350  9353     5 
 9350  9353  9354     5 
 9350  9353  9355     5 
 9350  9353  9356     5 
 9354  9353  9355     5 
 9354  9353  9356     5 
 9355  9353  9356     5 
 9353  9356  9357     5 
 9353  9356  9358     5 
 9353  9356  9359     5 
 9357  9356  9358     5 
 9357  9356  9359     5 
 9358  9356  9359     5 
 9356  9359  9360     5 
 9356  9359  9361     5 
 9356  9359  9362     5 
 9360  9359  9361     5 
 9360  9359  9362     5 
 9361  9359  9362     5 
 9359  9362  9363     5 
 9359  9362  9364     5 
 9359  9362  9365     5 
 9363  9362  9364     5 
 9363  9362  9365     5 
 9364  9362  9365     5 
 9362  9365  9366     5 
 9362  9365  9367     5 
 9362  9365  9368     5 
 9366  9365  9367     5 
 9366  9365  9368     5 
 9367  9365  9368     5 
 9365  9368  9369     5 
 9365  9368  9370     5 
 9365  9368  9371     5 
 9369  9368  9370     5 
 9369  9368  9371     5 
 9370  9368  9371     5 
 9368  9371  9372     5 
 9368  9371  9373     5 
 9368  9371  9374     5 
 9372  9371  9373     5 
 9372  9371  9374     5 
 9373  9371  9374     5 
 9371  9374  9375     5 
 9371  9374  9376     5 
 9371  9374  9377     5 
 9375  9374  9376     5 
 9375  9374  9377     5 
 9376  9374  9377     5 
 9374  9377  9378     5 
 9374  9377  9379     5 
 9374  9377  9380     5 
 9378  9377  9379     5 
 9378  9377  9380     5 
 9379  9377  9380     5 
 9382  9381  9385     5 
 9382  9381  9389     5 
 9382  9381  9393     5 
 9385  9381  9389     5 
 9385  9381  9393     5 
 9389  9381  9393     5 
 9381  9382  9383     5 
 9381  9382  9384     5 
 9381  9382  9397     5 
 9383  9382  9384     5 
 9383  9382  9397     5 
 9384  9382  9397     5 
 9381  9385  9386     5 
 9381  9385  9387     5 
 9381  9385  9388     5 
 9386  9385  9387     5 
 9386  9385  9388     5 
 9387  9385  9388     5 
 9381  9389  9390     5 
 9381  9389  9391     5 
 9381  9389  9392     5 
 9390  9389  9391     5 
 9390  9389  9392     5 
 9391  9389  9392     5 
 9381  9393  9394     5 
 9381  9393  9395     5 
 9381  9393  9396     5 
 9394  9393  9395     5 
 9394  9393  9396     5 
 9395  9393  9396     5 
 9382  9397  9398     5 
 9382  9397  9399     5 
 9382  9397  9403     5 
 9398  9397  9399     5 
 9398  9397  9403     5 
 9399  9397  9403     5 
 9401  9400  9402     5 
 9401  9400  9403     5 
 9401  9400  9404     5 
 9402  9400  9403     5 
 9402  9400  9404     5 
 9403  9400  9404     5 
 9397  9403  9400     5 
 9400  9404  9405     5 
 9404  9405  9406     5 
 9404  9405  9407     5 
 9404  9405  9408     5 
 9406  9405  9407     5 
 9406  9405  9408     5 
 9407  9405  9408     5 
 9405  9408  9409     5 
 9405  9408  9410     5 
 9405  9408  9416     5 
 9409  9408  9410     5 
 9409  9408  9416     5 
 9410  9408  9416     5 
 9408  9410  9411     5 
 9410  9411  9412     5 
 9410  9411  9413     5 
 9412  9411  9413     5 
 9411  9413  9414     5 
 9411  9413  9415     5 
 9411  9413  9425     5 
 9414  9413  9415     5 
 9414  9413  9425     5 
 9415  9413  9425     5 
 9408  9416  9417     5 
 9408  9416  9418     5 
 9408  9416  9419     5 
 9417  9416  9418     5 
 9417  9416  9419     5 
 9418  9416  9419     5 
 9416  9419  9420     5 
 9419  9420  9421     5 
 9419  9420  9422     5 
 9421  9420  9422     5 
 9420  9422  9423     5 
 9420  9422  9424     5 
 9420  9422  9472     5 
 9423  9422  9424     5 
 9423  9422  9472     5 
 9424  9422  9472     5 
 9413  9425  9426     5 
 9413  9425  9427     5 
 9413  9425  9428     5 
 9426  9425  9427     5 
 9426  9425  9428     5 
 9427  9425  9428     5 
 9425  9428  9429     5 
 9425  9428  9430     5 
 9425  9428  9431     5 
 9429  9428  9430     5 
 9429  9428  9431     5 
 9430  9428  9431     5 
 9428  9431  9432     5 
 9428  9431  9433     5 
 9428  9431  9434     5 
 9432  9431  9433     5 
 9432  9431  9434     5 
 9433  9431  9434     5 
 9431  9434  9435     5 
 9431  9434  9436     5 
 9431  9434  9437     5 
 9435  9434  9436     5 
 9435  9434  9437     5 
 9436  9434  9437     5 
 9434  9437  9438     5 
 9434  9437  9439     5 
 9434  9437  9440     5 
 9438  9437  9439     5 
 9438  9437  9440     5 
 9439  9437  9440     5 
 9437  9440  9441     5 
 9437  9440  9442     5 
 9437  9440  9443     5 
 9441  9440  9442     5 
 9441  9440  9443     5 
 9442  9440  9443     5 
 9440  9443  9444     5 
 9440  9443  9445     5 
 9444  9443  9445     5 
 9443  9445  9446     5 
 9443  9445  9447     5 
 9446  9445  9447     5 
 9445  9447  9448     5 
 9445  9447  9449     5 
 9445  9447  9450     5 
 9448  9447  9449     5 
 9448  9447  9450     5 
 9449  9447  9450     5 
 9447  9450  9451     5 
 9447  9450  9452     5 
 9447  9450  9453     5 
 9451  9450  9452     5 
 9451  9450  9453     5 
 9452  9450  9453     5 
 9450  9453  9454     5 
 9450  9453  9455     5 
 9450  9453  9456     5 
 9454  9453  9455     5 
 9454  9453  9456     5 
 9455  9453  9456     5 
 9453  9456  9457     5 
 9453  9456  9458     5 
 9453  9456  9459     5 
 9457  9456  9458     5 
 9457  9456  9459     5 
 9458  9456  9459     5 
 9456  9459  9460     5 
 9456  9459  9461     5 
 9456  9459  9462     5 
 9460  9459  9461     5 
 9460  9459  9462     5 
 9461  9459  9462     5 
 9459  9462  9463     5 
 9459  9462  9464     5 
 9459  9462  9465     5 
 9463  9462  9464     5 
 9463  9462  9465     5 
 9464  9462  9465     5 
 9462  9465  9466     5 
 9462  9465  9467     5 
 9462  9465  9468     5 
 9466  9465  9467     5 
 9466  9465  9468     5 
 9467  9465  9468     5 
 9465  9468  9469     5 
 9465  9468  9470     5 
 9465  9468  9471     5 
 9469  9468  9470     5 
 9469  9468  9471     5 
 9470  9468  9471     5 
 9422  9472  9473     5 
 9422  9472  9474     5 
 9422  9472  9475     5 
 9473  9472  9474     5 
 9473  9472  9475     5 
 9474  9472  9475     5 
 9472  9475  9476     5 
 9472  9475  9477     5 
 9472  9475  9478     5 
 9476  9475  9477     5 
 9476  9475  9478     5 
 9477  9475  9478     5 
 9475  9478  9479     5 
 9475  9478  9480     5 
 9475  9478  9481     5 
 9479  9478  9480     5 
 9479  9478  9481     5 
 9480  9478  9481     5 
 9478  9481  9482     5 
 9478  9481  9483     5 
 9478  9481  9484     5 
 9482  9481  9483     5 
 9482  9481  9484     5 
 9483  9481  9484     5 
 9481  9484  9485     5 
 9481  9484  9486     5 
 9481  9484  9487     5 
 9485  9484  9486     5 
 9485  9484  9487     5 
 9486  9484  9487     5 
 9484  9487  9488     5 
 9484  9487  9489     5 
 9484  9487  9490     5 
 9488  9487  9489     5 
 9488  9487  9490     5 
 9489  9487  9490     5 
 9487  9490  9491     5 
 9487  9490  9492     5 
 9487  9490  9493     5 
 9491  9490  9492     5 
 9491  9490  9493     5 
 9492  9490  9493     5 
 9490  9493  9494     5 
 9490  9493  9495     5 
 9490  9493  9496     5 
 9494  9493  9495     5 
 9494  9493  9496     5 
 9495  9493  9496     5 
 9493  9496  9497     5 
 9493  9496  9498     5 
 9493  9496  9499     5 
 9497  9496  9498     5 
 9497  9496  9499     5 
 9498  9496  9499     5 
 9496  9499  9500     5 
 9496  9499  9501     5 
 9496  9499  9502     5 
 9500  9499  9501     5 
 9500  9499  9502     5 
 9501  9499  9502     5 
 9499  9502  9503     5 
 9499  9502  9504     5 
 9499  9502  9505     5 
 9503  9502  9504     5 
 9503  9502  9505     5 
 9504  9502  9505     5 
 9502  9505  9506     5 
 9502  9505  9507     5 
 9502  9505  9508     5 
 9506  9505  9507     5 
 9506  9505  9508     5 
 9507  9505  9508     5 
 9505  9508  9509     5 
 9505  9508  9510     5 
 9505  9508  9511     5 
 9509  9508  9510     5 
 9509  9508  9511     5 
 9510  9508  9511     5 
 9508  9511  9512     5 
 9508  9511  9513     5 
 9508  9511  9514     5 
 9512  9511  9513     5 
 9512  9511  9514     5 
 9513  9511  9514     5 
 9516  9515  9519     5 
 9516  9515  9523     5 
 9516  9515  9527     5 
 9519  9515  9523     5 
 9519  9515  9527     5 
 9523  9515  9527     5 
 9515  9516  9517     5 
 9515  9516  9518     5 
 9515  9516  9531     5 
 9517  9516  9518     5 
 9517  9516  9531     5 
 9518  9516  9531     5 
 9515  9519  9520     5 
 9515  9519  9521     5 
 9515  9519  9522     5 
 9520  9519  9521     5 
 9520  9519  9522     5 
 9521  9519  9522     5 
 9515  9523  9524     5 
 9515  9523  9525     5 
 9515  9523  9526     5 
 9524  9523  9525     5 
 9524  9523  9526     5 
 9525  9523  9526     5 
 9515  9527  9528     5 
 9515  9527  9529     5 
 9515  9527  9530     5 
 9528  9527  9529     5 
 9528  9527  9530     5 
 9529  9527  9530     5 
 9516  9531  9532     5 
 9516  9531  9533     5 
 9516  9531  9537     5 
 9532  9531  9533     5 
 9532  9531  9537     5 
 9533  9531  9537     5 
 9535  9534  9536     5 
 9535  9534  9537     5 
 9535  9534  9538     5 
 9536  9534  9537     5 
 9536  9534  9538     5 
 9537  9534  9538     5 
 9531  9537  9534     5 
 9534  9538  9539     5 
 9538  9539  9540     5 
 9538  9539  9541     5 
 9538  9539  9542     5 
 9540  9539  9541     5 
 9540  9539  9542     5 
 9541  9539  9542     5 
 9539  9542  9543     5 
 9539  9542  9544     5 
 9539  9542  9550     5 
 9543  9542  9544     5 
 9543  9542  9550     5 
 9544  9542  9550     5 
 9542  9544  9545     5 
 9544  9545  9546     5 
 9544  9545  9547     5 
 9546  9545  9547     5 
 9545  9547  9548     5 
 9545  9547  9549     5 
 9545  9547  9559     5 
 9548  9547  9549     5 
 9548  9547  9559     5 
 9549  9547  9559     5 
 9542  9550  9551     5 
 9542  9550  9552     5 
 9542  9550  9553     5 
 9551  9550  9552     5 
 9551  9550  9553     5 
 9552  9550  9553     5 
 9550  9553  9554     5 
 9553  9554  9555     5 
 9553  9554  9556     5 
 9555  9554  9556     5 
 9554  9556  9557     5 
 9554  9556  9558     5 
 9554  9556  9606     5 
 9557  9556  9558     5 
 9557  9556  9606     5 
 9558  9556  9606     5 
 9547  9559  9560     5 
 9547  9559  9561     5 
 9547  9559  9562     5 
 9560  9559  9561     5 
 9560  9559  9562     5 
 9561  9559  9562     5 
 9559  9562  9563     5 
 9559  9562  9564     5 
 9559  9562  9565     5 
 9563  9562  9564     5 
 9563  9562  9565     5 
 9564  9562  9565     5 
 9562  9565  9566     5 
 9562  9565  9567     5 
 9562  9565  9568     5 
 9566  9565  9567     5 
 9566  9565  9568     5 
 9567  9565  9568     5 
 9565  9568  9569     5 
 9565  9568  9570     5 
 9565  9568  9571     5 
 9569  9568  9570     5 
 9569  9568  9571     5 
 9570  9568  9571     5 
 9568  9571  9572     5 
 9568  9571  9573     5 
 9568  9571  9574     5 
 9572  9571  9573     5 
 9572  9571  9574     5 
 9573  9571  9574     5 
 9571  9574  9575     5 
 9571  9574  9576     5 
 9571  9574  9577     5 
 9575  9574  9576     5 
 9575  9574  9577     5 
 9576  9574  9577     5 
 9574  9577  9578     5 
 9574  9577  9579     5 
 9578  9577  9579     5 
 9577  9579  9580     5 
 9577  9579  9581     5 
 9580  9579  9581     5 
 9579  9581  9582     5 
 9579  9581  9583     5 
 9579  9581  9584     5 
 9582  9581  9583     5 
 9582  9581  9584     5 
 9583  9581  9584     5 
 9581  9584  9585     5 
 9581  9584  9586     5 
 9581  9584  9587     5 
 9585  9584  9586     5 
 9585  9584  9587     5 
 9586  9584  9587     5 
 9584  9587  9588     5 
 9584  9587  9589     5 
 9584  9587  9590     5 
 9588  9587  9589     5 
 9588  9587  9590     5 
 9589  9587  9590     5 
 9587  9590  9591     5 
 9587  9590  9592     5 
 9587  9590  9593     5 
 9591  9590  9592     5 
 9591  9590  9593     5 
 9592  9590  9593     5 
 9590  9593  9594     5 
 9590  9593  9595     5 
 9590  9593  9596     5 
 9594  9593  9595     5 
 9594  9593  9596     5 
 9595  9593  9596     5 
 9593  9596  9597     5 
 9593  9596  9598     5 
 9593  9596  9599     5 
 9597  9596  9598     5 
 9597  9596  9599     5 
 9598  9596  9599     5 
 9596  9599  9600     5 
 9596  9599  9601     5 
 9596  9599  9602     5 
 9600  9599  9601     5 
 9600  9599  9602     5 
 9601  9599  9602     5 
 9599  9602  9603     5 
 9599  9602  9604     5 
 9599  9602  9605     5 
 9603  9602  9604     5 
 9603  9602  9605     5 
 9604  9602  9605     5 
 9556  9606  9607     5 
 9556  9606  9608     5 
 9556  9606  9609     5 
 9607  9606  9608     5 
 9607  9606  9609     5 
 9608  9606  9609     5 
 9606  9609  9610     5 
 9606  9609  9611     5 
 9606  9609  9612     5 
 9610  9609  9611     5 
 9610  9609  9612     5 
 9611  9609  9612     5 
 9609  9612  9613     5 
 9609  9612  9614     5 
 9609  9612  9615     5 
 9613  9612  9614     5 
 9613  9612  9615     5 
 9614  9612  9615     5 
 9612  9615  9616     5 
 9612  9615  9617     5 
 9612  9615  9618     5 
 9616  9615  9617     5 
 9616  9615  9618     5 
 9617  9615  9618     5 
 9615  9618  9619     5 
 9615  9618  9620     5 
 9615  9618  9621     5 
 9619  9618  9620     5 
 9619  9618  9621     5 
 9620  9618  9621     5 
 9618  9621  9622     5 
 9618  9621  9623     5 
 9618  9621  9624     5 
 9622  9621  9623     5 
 9622  9621  9624     5 
 9623  9621  9624     5 
 9621  9624  9625     5 
 9621  9624  9626     5 
 9621  9624  9627     5 
 9625  9624  9626     5 
 9625  9624  9627     5 
 9626  9624  9627     5 
 9624  9627  9628     5 
 9624  9627  9629     5 
 9624  9627  9630     5 
 9628  9627  9629     5 
 9628  9627  9630     5 
 9629  9627  9630     5 
 9627  9630  9631     5 
 9627  9630  9632     5 
 9627  9630  9633     5 
 9631  9630  9632     5 
 9631  9630  9633     5 
 9632  9630  9633     5 
 9630  9633  9634     5 
 9630  9633  9635     5 
 9630  9633  9636     5 
 9634  9633  9635     5 
 9634  9633  9636     5 
 9635  9633  9636     5 
 9633  9636  9637     5 
 9633  9636  9638     5 
 9633  9636  9639     5 
 9637  9636  9638     5 
 9637  9636  9639     5 
 9638  9636  9639     5 
 9636  9639  9640     5 
 9636  9639  9641     5 
 9636  9639  9642     5 
 9640  9639  9641     5 
 9640  9639  9642     5 
 9641  9639  9642     5 
 9639  9642  9643     5 
 9639  9642  9644     5 
 9639  9642  9645     5 
 9643  9642  9644     5 
 9643  9642  9645     5 
 9644  9642  9645     5 
 9642  9645  9646     5 
 9642  9645  9647     5 
 9642  9645  9648     5 
 9646  9645  9647     5 
 9646  9645  9648     5 
 9647  9645  9648     5 
 9650  9649  9653     5 
 9650  9649  9657     5 
 9650  9649  9661     5 
 9653  9649  9657     5 
 9653  9649  9661     5 
 9657  9649  9661     5 
 9649  9650  9651     5 
 9649  9650  9652     5 
 9649  9650  9665     5 
 9651  9650  9652     5 
 9651  9650  9665     5 
 9652  9650  9665     5 
 9649  9653  9654     5 
 9649  9653  9655     5 
 9649  9653  9656     5 
 9654  9653  9655     5 
 9654  9653  9656     5 
 9655  9653  9656     5 
 9649  9657  9658     5 
 9649  9657  9659     5 
 9649  9657  9660     5 
 9658  9657  9659     5 
 9658  9657  9660     5 
 9659  9657  9660     5 
 9649  9661  9662     5 
 9649  9661  9663     5 
 9649  9661  9664     5 
 9662  9661  9663     5 
 9662  9661  9664     5 
 9663  9661  9664     5 
 9650  9665  9666     5 
 9650  9665  9667     5 
 9650  9665  9671     5 
 9666  9665  9667     5 
 9666  9665  9671     5 
 9667  9665  9671     5 
 9669  9668  9670     5 
 9669  9668  9671     5 
 9669  9668  9672     5 
 9670  9668  9671     5 
 9670  9668  9672     5 
 9671  9668  9672     5 
 9665  9671  9668     5 
 9668  9672  9673     5 
 9672  9673  9674     5 
 9672  9673  9675     5 
 9672  9673  9676     5 
 9674  9673  9675     5 
 9674  9673  9676     5 
 9675  9673  9676     5 
 9673  9676  9677     5 
 9673  9676  9678     5 
 9673  9676  9684     5 
 9677  9676  9678     5 
 9677  9676  9684     5 
 9678  9676  9684     5 
 9676  9678  9679     5 
 9678  9679  9680     5 
 9678  9679  9681     5 
 9680  9679  9681     5 
 9679  9681  9682     5 
 9679  9681  9683     5 
 9679  9681  9693     5 
 9682  9681  9683     5 
 9682  9681  9693     5 
 9683  9681  9693     5 
 9676  9684  9685     5 
 9676  9684  9686     5 
 9676  9684  9687     5 
 9685  9684  9686     5 
 9685  9684  9687     5 
 9686  9684  9687     5 
 9684  9687  9688     5 
 9687  9688  9689     5 
 9687  9688  9690     5 
 9689  9688  9690     5 
 9688  9690  9691     5 
 9688  9690  9692     5 
 9688  9690  9740     5 
 9691  9690  9692     5 
 9691  9690  9740     5 
 9692  9690  9740     5 
 9681  9693  9694     5 
 9681  9693  9695     5 
 9681  9693  9696     5 
 9694  9693  9695     5 
 9694  9693  9696     5 
 9695  9693  9696     5 
 9693  9696  9697     5 
 9693  9696  9698     5 
 9693  9696  9699     5 
 9697  9696  9698     5 
 9697  9696  9699     5 
 9698  9696  9699     5 
 9696  9699  9700     5 
 9696  9699  9701     5 
 9696  9699  9702     5 
 9700  9699  9701     5 
 9700  9699  9702     5 
 9701  9699  9702     5 
 9699  9702  9703     5 
 9699  9702  9704     5 
 9699  9702  9705     5 
 9703  9702  9704     5 
 9703  9702  9705     5 
 9704  9702  9705     5 
 9702  9705  9706     5 
 9702  9705  9707     5 
 9702  9705  9708     5 
 9706  9705  9707     5 
 9706  9705  9708     5 
 9707  9705  9708     5 
 9705  9708  9709     5 
 9705  9708  9710     5 
 9705  9708  9711     5 
 9709  9708  9710     5 
 9709  9708  9711     5 
 9710  9708  9711     5 
 9708  9711  9712     5 
 9708  9711  9713     5 
 9712  9711  9713     5 
 9711  9713  9714     5 
 9711  9713  9715     5 
 9714  9713  9715     5 
 9713  9715  9716     5 
 9713  9715  9717     5 
 9713  9715  9718     5 
 9716  9715  9717     5 
 9716  9715  9718     5 
 9717  9715  9718     5 
 9715  9718  9719     5 
 9715  9718  9720     5 
 9715  9718  9721     5 
 9719  9718  9720     5 
 9719  9718  9721     5 
 9720  9718  9721     5 
 9718  9721  9722     5 
 9718  9721  9723     5 
 9718  9721  9724     5 
 9722  9721  9723     5 
 9722  9721  9724     5 
 9723  9721  9724     5 
 9721  9724  9725     5 
 9721  9724  9726     5 
 9721  9724  9727     5 
 9725  9724  9726     5 
 9725  9724  9727     5 
 9726  9724  9727     5 
 9724  9727  9728     5 
 9724  9727  9729     5 
 9724  9727  9730     5 
 9728  9727  9729     5 
 9728  9727  9730     5 
 9729  9727  9730     5 
 9727  9730  9731     5 
 9727  9730  9732     5 
 9727  9730  9733     5 
 9731  9730  9732     5 
 9731  9730  9733     5 
 9732  9730  9733     5 
 9730  9733  9734     5 
 9730  9733  9735     5 
 9730  9733  9736     5 
 9734  9733  9735     5 
 9734  9733  9736     5 
 9735  9733  9736     5 
 9733  9736  9737     5 
 9733  9736  9738     5 
 9733  9736  9739     5 
 9737  9736  9738     5 
 9737  9736  9739     5 
 9738  9736  9739     5 
 9690  9740  9741     5 
 9690  9740  9742     5 
 9690  9740  9743     5 
 9741  9740  9742     5 
 9741  9740  9743     5 
 9742  9740  9743     5 
 9740  9743  9744     5 
 9740  9743  9745     5 
 9740  9743  9746     5 
 9744  9743  9745     5 
 9744  9743  9746     5 
 9745  9743  9746     5 
 9743  9746  9747     5 
 9743  9746  9748     5 
 9743  9746  9749     5 
 9747  9746  9748     5 
 9747  9746  9749     5 
 9748  9746  9749     5 
 9746  9749  9750     5 
 9746  9749  9751     5 
 9746  9749  9752     5 
 9750  9749  9751     5 
 9750  9749  9752     5 
 9751  9749  9752     5 
 9749  9752  9753     5 
 9749  9752  9754     5 
 9749  9752  9755     5 
 9753  9752  9754     5 
 9753  9752  9755     5 
 9754  9752  9755     5 
 9752  9755  9756     5 
 9752  9755  9757     5 
 9752  9755  9758     5 
 9756  9755  9757     5 
 9756  9755  9758     5 
 9757  9755  9758     5 
 9755  9758  9759     5 
 9755  9758  9760     5 
 9755  9758  9761     5 
 9759  9758  9760     5 
 9759  9758  9761     5 
 9760  9758  9761     5 
 9758  9761  9762     5 
 9758  9761  9763     5 
 9758  9761  9764     5 
 9762  9761  9763     5 
 9762  9761  9764     5 
 9763  9761  9764     5 
 9761  9764  9765     5 
 9761  9764  9766     5 
 9761  9764  9767     5 
 9765  9764  9766     5 
 9765  9764  9767     5 
 9766  9764  9767     5 
 9764  9767  9768     5 
 9764  9767  9769     5 
 9764  9767  9770     5 
 9768  9767  9769     5 
 9768  9767  9770     5 
 9769  9767  9770     5 
 9767  9770  9771     5 
 9767  9770  9772     5 
 9767  9770  9773     5 
 9771  9770  9772     5 
 9771  9770  9773     5 
 9772  9770  9773     5 
 9770  9773  9774     5 
 9770  9773  9775     5 
 9770  9773  9776     5 
 9774  9773  9775     5 
 9774  9773  9776     5 
 9775  9773  9776     5 
 9773  9776  9777     5 
 9773  9776  9778     5 
 9773  9776  9779     5 
 9777  9776  9778     5 
 9777  9776  9779     5 
 9778  9776  9779     5 
 9776  9779  9780     5 
 9776  9779  9781     5 
 9776  9779  9782     5 
 9780  9779  9781     5 
 9780  9779  9782     5 
 9781  9779  9782     5 
 9784  9783  9787     5 
 9784  9783  9791     5 
 9784  9783  9795     5 
 9787  9783  9791     5 
 9787  9783  9795     5 
 9791  9783  9795     5 
 9783  9784  9785     5 
 9783  9784  9786     5 
 9783  9784  9799     5 
 9785  9784  9786     5 
 9785  9784  9799     5 
 9786  9784  9799     5 
 9783  9787  9788     5 
 9783  9787  9789     5 
 9783  9787  9790     5 
 9788  9787  9789     5 
 9788  9787  9790     5 
 9789  9787  9790     5 
 9783  9791  9792     5 
 9783  9791  9793     5 
 9783  9791  9794     5 
 9792  9791  9793     5 
 9792  9791  9794     5 
 9793  9791  9794     5 
 9783  9795  9796     5 
 9783  9795  9797     5 
 9783  9795  9798     5 
 9796  9795  9797     5 
 9796  9795  9798     5 
 9797  9795  9798     5 
 9784  9799  9800     5 
 9784  9799  9801     5 
 9784  9799  9805     5 
 9800  9799  9801     5 
 9800  9799  9805     5 
 9801  9799  9805     5 
 9803  9802  9804     5 
 9803  9802  9805     5 
 9803  9802  9806     5 
 9804  9802  9805     5 
 9804  9802  9806     5 
 9805  9802  9806     5 
 9799  9805  9802     5 
 9802  9806  9807     5 
 9806  9807  9808     5 
 9806  9807  9809     5 
 9806  9807  9810     5 
 9808  9807  9809     5 
 9808  9807  9810     5 
 9809  9807  9810     5 
 9807  9810  9811     5 
 9807  9810  9812     5 
 9807  9810  9818     5 
 9811  9810  9812     5 
 9811  9810  9818     5 
 9812  9810  9818     5 
 9810  9812  9813     5 
 9812  9813  9814     5 
 9812  9813  9815     5 
 9814  9813  9815     5 
 9813  9815  9816     5 
 9813  9815  9817     5 
 9813  9815  9827     5 
 9816  9815  9817     5 
 9816  9815  9827     5 
 9817  9815  9827     5 
 9810  9818  9819     5 
 9810  9818  9820     5 
 9810  9818  9821     5 
 9819  9818  9820     5 
 9819  9818  9821     5 
 9820  9818  9821     5 
 9818  9821  9822     5 
 9821  9822  9823     5 
 9821  9822  9824     5 
 9823  9822  9824     5 
 9822  9824  9825     5 
 9822  9824  9826     5 
 9822  9824  9874     5 
 9825  9824  9826     5 
 9825  9824  9874     5 
 9826  9824  9874     5 
 9815  9827  9828     5 
 9815  9827  9829     5 
 9815  9827  9830     5 
 9828  9827  9829     5 
 9828  9827  9830     5 
 9829  9827  9830     5 
 9827  9830  9831     5 
 9827  9830  9832     5 
 9827  9830  9833     5 
 9831  9830  9832     5 
 9831  9830  9833     5 
 9832  9830  9833     5 
 9830  9833  9834     5 
 9830  9833  9835     5 
 9830  9833  9836     5 
 9834  9833  9835     5 
 9834  9833  9836     5 
 9835  9833  9836     5 
 9833  9836  9837     5 
 9833  9836  9838     5 
 9833  9836  9839     5 
 9837  9836  9838     5 
 9837  9836  9839     5 
 9838  9836  9839     5 
 9836  9839  9840     5 
 9836  9839  9841     5 
 9836  9839  9842     5 
 9840  9839  9841     5 
 9840  9839  9842     5 
 9841  9839  9842     5 
 9839  9842  9843     5 
 9839  9842  9844     5 
 9839  9842  9845     5 
 9843  9842  9844     5 
 9843  9842  9845     5 
 9844  9842  9845     5 
 9842  9845  9846     5 
 9842  9845  9847     5 
 9846  9845  9847     5 
 9845  9847  9848     5 
 9845  9847  9849     5 
 9848  9847  9849     5 
 9847  9849  9850     5 
 9847  9849  9851     5 
 9847  9849  9852     5 
 9850  9849  9851     5 
 9850  9849  9852     5 
 9851  9849  9852     5 
 9849  9852  9853     5 
 9849  9852  9854     5 
 9849  9852  9855     5 
 9853  9852  9854     5 
 9853  9852  9855     5 
 9854  9852  9855     5 
 9852  9855  9856     5 
 9852  9855  9857     5 
 9852  9855  9858     5 
 9856  9855  9857     5 
 9856  9855  9858     5 
 9857  9855  9858     5 
 9855  9858  9859     5 
 9855  9858  9860     5 
 9855  9858  9861     5 
 9859  9858  9860     5 
 9859  9858  9861     5 
 9860  9858  9861     5 
 9858  9861  9862     5 
 9858  9861  9863     5 
 9858  9861  9864     5 
 9862  9861  9863     5 
 9862  9861  9864     5 
 9863  9861  9864     5 
 9861  9864  9865     5 
 9861  9864  9866     5 
 9861  9864  9867     5 
 9865  9864  9866     5 
 9865  9864  9867     5 
 9866  9864  9867     5 
 9864  9867  9868     5 
 9864  9867  9869     5 
 9864  9867  9870     5 
 9868  9867  9869     5 
 9868  9867  9870     5 
 9869  9867  9870     5 
 9867  9870  9871     5 
 9867  9870  9872     5 
 9867  9870  9873     5 
 9871  9870  9872     5 
 9871  9870  9873     5 
 9872  9870  9873     5 
 9824  9874  9875     5 
 9824  9874  9876     5 
 9824  9874  9877     5 
 9875  9874  9876     5 
 9875  9874  9877     5 
 9876  9874  9877     5 
 9874  9877  9878     5 
 9874  9877  9879     5 
 9874  9877  9880     5 
 9878  9877  9879     5 
 9878  9877  9880     5 
 9879  9877  9880     5 
 9877  9880  9881     5 
 9877  9880  9882     5 
 9877  9880  9883     5 
 9881  9880  9882     5 
 9881  9880  9883     5 
 9882  9880  9883     5 
 9880  9883  9884     5 
 9880  9883  9885     5 
 9880  9883  9886     5 
 9884  9883  9885     5 
 9884  9883  9886     5 
 9885  9883  9886     5 
 9883  9886  9887     5 
 9883  9886  9888     5 
 9883  9886  9889     5 
 9887  9886  9888     5 
 9887  9886  9889     5 
 9888  9886  9889     5 
 9886  9889  9890     5 
 9886  9889  9891     5 
 9886  9889  9892     5 
 9890  9889  9891     5 
 9890  9889  9892     5 
 9891  9889  9892     5 
 9889  9892  9893     5 
 9889  9892  9894     5 
 9889  9892  9895     5 
 9893  9892  9894     5 
 9893  9892  9895     5 
 9894  9892  9895     5 
 9892  9895  9896     5 
 9892  9895  9897     5 
 9892  9895  9898     5 
 9896  9895  9897     5 
 9896  9895  9898     5 
 9897  9895  9898     5 
 9895  9898  9899     5 
 9895  9898  9900     5 
 9895  9898  9901     5 
 9899  9898  9900     5 
 9899  9898  9901     5 
 9900  9898  9901     5 
 9898  9901  9902     5 
 9898  9901  9903     5 
 9898  9901  9904     5 
 9902  9901  9903     5 
 9902  9901  9904     5 
 9903  9901  9904     5 
 9901  9904  9905     5 
 9901  9904  9906     5 
 9901  9904  9907     5 
 9905  9904  9906     5 
 9905  9904  9907     5 
 9906  9904  9907     5 
 9904  9907  9908     5 
 9904  9907  9909     5 
 9904  9907  9910     5 
 9908  9907  9909     5 
 9908  9907  9910     5 
 9909  9907  9910     5 
 9907  9910  9911     5 
 9907  9910  9912     5 
 9907  9910  9913     5 
 9911  9910  9912     5 
 9911  9910  9913     5 
 9912  9910  9913     5 
 9910  9913  9914     5 
 9910  9913  9915     5 
 9910  9913  9916     5 
 9914  9913  9915     5 
 9914  9913  9916     5 
 9915  9913  9916     5 
 9918  9917  9921     5 
 9918  9917  9925     5 
 9918  9917  9929     5 
 9921  9917  9925     5 
 9921  9917  9929     5 
 9925  9917  9929     5 
 9917  9918  9919     5 
 9917  9918  9920     5 
 9917  9918  9933     5 
 9919  9918  9920     5 
 9919  9918  9933     5 
 9920  9918  9933     5 
 9917  9921  9922     5 
 9917  9921  9923     5 
 9917  9921  9924     5 
 9922  9921  9923     5 
 9922  9921  9924     5 
 9923  9921  9924     5 
 9917  9925  9926     5 
 9917  9925  9927     5 
 9917  9925  9928     5 
 9926  9925  9927     5 
 9926  9925  9928     5 
 9927  9925  9928     5 
 9917  9929  9930     5 
 9917  9929  9931     5 
 9917  9929  9932     5 
 9930  9929  9931     5 
 9930  9929  9932     5 
 9931  9929  9932     5 
 9918  9933  9934     5 
 9918  9933  9935     5 
 9918  9933  9939     5 
 9934  9933  9935     5 
 9934  9933  9939     5 
 9935  9933  9939     5 
 9937  9936  9938     5 
 9937  9936  9939     5 
 9937  9936  9940     5 
 9938  9936  9939     5 
 9938  9936  9940     5 
 9939  9936  9940     5 
 9933  9939  9936     5 
 9936  9940  9941     5 
 9940  9941  9942     5 
 9940  9941  9943     5 
 9940  9941  9944     5 
 9942  9941  9943     5 
 9942  9941  9944     5 
 9943  9941  9944     5 
 9941  9944  9945     5 
 9941  9944  9946     5 
 9941  9944  9952     5 
 9945  9944  9946     5 
 9945  9944  9952     5 
 9946  9944  9952     5 
 9944  9946  9947     5 
 9946  9947  9948     5 
 9946  9947  9949     5 
 9948  9947  9949     5 
 9947  9949  9950     5 
 9947  9949  9951     5 
 9947  9949  9961     5 
 9950  9949  9951     5 
 9950  9949  9961     5 
 9951  9949  9961     5 
 9944  9952  9953     5 
 9944  9952  9954     5 
 9944  9952  9955     5 
 9953  9952  9954     5 
 9953  9952  9955     5 
 9954  9952  9955     5 
 9952  9955  9956     5 
 9955  9956  9957     5 
 9955  9956  9958     5 
 9957  9956  9958     5 
 9956  9958  9959     5 
 9956  9958  9960     5 
 9956  9958 10008     5 
 9959  9958  9960     5 
 9959  9958 10008     5 
 9960  9958 10008     5 
 9949  9961  9962     5 
 9949  9961  9963     5 
 9949  9961  9964     5 
 9962  9961  9963     5 
 9962  9961  9964     5 
 9963  9961  9964     5 
 9961  9964  9965     5 
 9961  9964  9966     5 
 9961  9964  9967     5 
 9965  9964  9966     5 
 9965  9964  9967     5 
 9966  9964  9967     5 
 9964  9967  9968     5 
 9964  9967  9969     5 
 9964  9967  9970     5 
 9968  9967  9969     5 
 9968  9967  9970     5 
 9969  9967  9970     5 
 9967  9970  9971     5 
 9967  9970  9972     5 
 9967  9970  9973     5 
 9971  9970  9972     5 
 9971  9970  9973     5 
 9972  9970  9973     5 
 9970  9973  9974     5 
 9970  9973  9975     5 
 9970  9973  9976     5 
 9974  9973  9975     5 
 9974  9973  9976     5 
 9975  9973  9976     5 
 9973  9976  9977     5 
 9973  9976  9978     5 
 9973  9976  9979     5 
 9977  9976  9978     5 
 9977  9976  9979     5 
 9978  9976  9979     5 
 9976  9979  9980     5 
 9976  9979  9981     5 
 9980  9979  9981     5 
 9979  9981  9982     5 
 9979  9981  9983     5 
 9982  9981  9983     5 
 9981  9983  9984     5 
 9981  9983  9985     5 
 9981  9983  9986     5 
 9984  9983  9985     5 
 9984  9983  9986     5 
 9985  9983  9986     5 
 9983  9986  9987     5 
 9983  9986  9988     5 
 9983  9986  9989     5 
 9987  9986  9988     5 
 9987  9986  9989     5 
 9988  9986  9989     5 
 9986  9989  9990     5 
 9986  9989  9991     5 
 9986  9989  9992     5 
 9990  9989  9991     5 
 9990  9989  9992     5 
 9991  9989  9992     5 
 9989  9992  9993     5 
 9989  9992  9994     5 
 9989  9992  9995     5 
 9993  9992  9994     5 
 9993  9992  9995     5 
 9994  9992  9995     5 
 9992  9995  9996     5 
 9992  9995  9997     5 
 9992  9995  9998     5 
 9996  9995  9997     5 
 9996  9995  9998     5 
 9997  9995  9998     5 
 9995  9998  9999     5 
 9995  9998 10000     5 
 9995  9998 10001     5 
 9999  9998 10000     5 
 9999  9998 10001     5 
10000  9998 10001     5 
 9998 10001 10002     5 
 9998 10001 10003     5 
 9998 10001 10004     5 
10002 10001 10003     5 
10002 10001 10004     5 
10003 10001 10004     5 
10001 10004 10005     5 
10001 10004 10006     5 
10001 10004 10007     5 
10005 10004 10006     5 
10005 10004 10007     5 
10006 10004 10007     5 
 9958 10008 10009     5 
 9958 10008 10010     5 
 9958 10008 10011     5 
10009 10008 10010     5 
10009 10008 10011     5 
10010 10008 10011     5 
10008 10011 10012     5 
10008 10011 10013     5 
10008 10011 10014     5 
10012 10011 10013     5 
10012 10011 10014     5 
10013 10011 10014     5 
10011 10014 10015     5 
10011 10014 10016     5 
10011 10014 10017     5 
10015 10014 10016     5 
10015 10014 10017     5 
10016 10014 10017     5 
10014 10017 10018     5 
10014 10017 10019     5 
10014 10017 10020     5 
10018 10017 10019     5 
10018 10017 10020     5 
10019 10017 10020     5 
10017 10020 10021     5 
10017 10020 10022     5 
10017 10020 10023     5 
10021 10020 10022     5 
10021 10020 10023     5 
10022 10020 10023     5 
10020 10023 10024     5 
10020 10023 10025     5 
10020 10023 10026     5 
10024 10023 10025     5 
10024 10023 10026     5 
10025 10023 10026     5 
10023 10026 10027     5 
10023 10026 10028     5 
10023 10026 10029     5 
10027 10026 10028     5 
10027 10026 10029     5 
10028 10026 10029     5 
10026 10029 10030     5 
10026 10029 10031     5 
10026 10029 10032     5 
10030 10029 10031     5 
10030 10029 10032     5 
10031 10029 10032     5 
10029 10032 10033     5 
10029 10032 10034     5 
10029 10032 10035     5 
10033 10032 10034     5 
10033 10032 10035     5 
10034 10032 10035     5 
10032 10035 10036     5 
10032 10035 10037     5 
10032 10035 10038     5 
10036 10035 10037     5 
10036 10035 10038     5 
10037 10035 10038     5 
10035 10038 10039     5 
10035 10038 10040     5 
10035 10038 10041     5 
10039 10038 10040     5 
10039 10038 10041     5 
10040 10038 10041     5 
10038 10041 10042     5 
10038 10041 10043     5 
10038 10041 10044     5 
10042 10041 10043     5 
10042 10041 10044     5 
10043 10041 10044     5 
10041 10044 10045     5 
10041 10044 10046     5 
10041 10044 10047     5 
10045 10044 10046     5 
10045 10044 10047     5 
10046 10044 10047     5 
10044 10047 10048     5 
10044 10047 10049     5 
10044 10047 10050     5 
10048 10047 10049     5 
10048 10047 10050     5 
10049 10047 10050     5 
10052 10051 10055     5 
10052 10051 10059     5 
10052 10051 10063     5 
10055 10051 10059     5 
10055 10051 10063     5 
10059 10051 10063     5 
10051 10052 10053     5 
10051 10052 10054     5 
10051 10052 10067     5 
10053 10052 10054     5 
10053 10052 10067     5 
10054 10052 10067     5 
10051 10055 10056     5 
10051 10055 10057     5 
10051 10055 10058     5 
10056 10055 10057     5 
10056 10055 10058     5 
10057 10055 10058     5 
10051 10059 10060     5 
10051 10059 10061     5 
10051 10059 10062     5 
10060 10059 10061     5 
10060 10059 10062     5 
10061 10059 10062     5 
10051 10063 10064     5 
10051 10063 10065     5 
10051 10063 10066     5 
10064 10063 10065     5 
10064 10063 10066     5 
10065 10063 10066     5 
10052 10067 10068     5 
10052 10067 10069     5 
10052 10067 10073     5 
10068 10067 10069     5 
10068 10067 10073     5 
10069 10067 10073     5 
10071 10070 10072     5 
10071 10070 10073     5 
10071 10070 10074     5 
10072 10070 10073     5 
10072 10070 10074     5 
10073 10070 10074     5 
10067 10073 10070     5 
10070 10074 10075     5 
10074 10075 10076     5 
10074 10075 10077     5 
10074 10075 10078     5 
10076 10075 10077     5 
10076 10075 10078     5 
10077 10075 10078     5 
10075 10078 10079     5 
10075 10078 10080     5 
10075 10078 10086     5 
10079 10078 10080     5 
10079 10078 10086     5 
10080 10078 10086     5 
10078 10080 10081     5 
10080 10081 10082     5 
10080 10081 10083     5 
10082 10081 10083     5 
10081 10083 10084     5 
10081 10083 10085     5 
10081 10083 10095     5 
10084 10083 10085     5 
10084 10083 10095     5 
10085 10083 10095     5 
10078 10086 10087     5 
10078 10086 10088     5 
10078 10086 10089     5 
10087 10086 10088     5 
10087 10086 10089     5 
10088 10086 10089     5 
10086 10089 10090     5 
10089 10090 10091     5 
10089 10090 10092     5 
10091 10090 10092     5 
10090 10092 10093     5 
10090 10092 10094     5 
10090 10092 10142     5 
10093 10092 10094     5 
10093 10092 10142     5 
10094 10092 10142     5 
10083 10095 10096     5 
10083 10095 10097     5 
10083 10095 10098     5 
10096 10095 10097     5 
10096 10095 10098     5 
10097 10095 10098     5 
10095 10098 10099     5 
10095 10098 10100     5 
10095 10098 10101     5 
10099 10098 10100     5 
10099 10098 10101     5 
10100 10098 10101     5 
10098 10101 10102     5 
10098 10101 10103     5 
10098 10101 10104     5 
10102 10101 10103     5 
10102 10101 10104     5 
10103 10101 10104     5 
10101 10104 10105     5 
10101 10104 10106     5 
10101 10104 10107     5 
10105 10104 10106     5 
10105 10104 10107     5 
10106 10104 10107     5 
10104 10107 10108     5 
10104 10107 10109     5 
10104 10107 10110     5 
10108 10107 10109     5 
10108 10107 10110     5 
10109 10107 10110     5 
10107 10110 10111     5 
10107 10110 10112     5 
10107 10110 10113     5 
10111 10110 10112     5 
10111 10110 10113     5 
10112 10110 10113     5 
10110 10113 10114     5 
10110 10113 10115     5 
10114 10113 10115     5 
10113 10115 10116     5 
10113 10115 10117     5 
10116 10115 10117     5 
10115 10117 10118     5 
10115 10117 10119     5 
10115 10117 10120     5 
10118 10117 10119     5 
10118 10117 10120     5 
10119 10117 10120     5 
10117 10120 10121     5 
10117 10120 10122     5 
10117 10120 10123     5 
10121 10120 10122     5 
10121 10120 10123     5 
10122 10120 10123     5 
10120 10123 10124     5 
10120 10123 10125     5 
10120 10123 10126     5 
10124 10123 10125     5 
10124 10123 10126     5 
10125 10123 10126     5 
10123 10126 10127     5 
10123 10126 10128     5 
10123 10126 10129     5 
10127 10126 10128     5 
10127 10126 10129     5 
10128 10126 10129     5 
10126 10129 10130     5 
10126 10129 10131     5 
10126 10129 10132     5 
10130 10129 10131     5 
10130 10129 10132     5 
10131 10129 10132     5 
10129 10132 10133     5 
10129 10132 10134     5 
10129 10132 10135     5 
10133 10132 10134     5 
10133 10132 10135     5 
10134 10132 10135     5 
10132 10135 10136     5 
10132 10135 10137     5 
10132 10135 10138     5 
10136 10135 10137     5 
10136 10135 10138     5 
10137 10135 10138     5 
10135 10138 10139     5 
10135 10138 10140     5 
10135 10138 10141     5 
10139 10138 10140     5 
10139 10138 10141     5 
10140 10138 10141     5 
10092 10142 10143     5 
10092 10142 10144     5 
10092 10142 10145     5 
10143 10142 10144     5 
10143 10142 10145     5 
10144 10142 10145     5 
10142 10145 10146     5 
10142 10145 10147     5 
10142 10145 10148     5 
10146 10145 10147     5 
10146 10145 10148     5 
10147 10145 10148     5 
10145 10148 10149     5 
10145 10148 10150     5 
10145 10148 10151     5 
10149 10148 10150     5 
10149 10148 10151     5 
10150 10148 10151     5 
10148 10151 10152     5 
10148 10151 10153     5 
10148 10151 10154     5 
10152 10151 10153     5 
10152 10151 10154     5 
10153 10151 10154     5 
10151 10154 10155     5 
10151 10154 10156     5 
10151 10154 10157     5 
10155 10154 10156     5 
10155 10154 10157     5 
10156 10154 10157     5 
10154 10157 10158     5 
10154 10157 10159     5 
10154 10157 10160     5 
10158 10157 10159     5 
10158 10157 10160     5 
10159 10157 10160     5 
10157 10160 10161     5 
10157 10160 10162     5 
10157 10160 10163     5 
10161 10160 10162     5 
10161 10160 10163     5 
10162 10160 10163     5 
10160 10163 10164     5 
10160 10163 10165     5 
10160 10163 10166     5 
10164 10163 10165     5 
10164 10163 10166     5 
10165 10163 10166     5 
10163 10166 10167     5 
10163 10166 10168     5 
10163 10166 10169     5 
10167 10166 10168     5 
10167 10166 10169     5 
10168 10166 10169     5 
10166 10169 10170     5 
10166 10169 10171     5 
10166 10169 10172     5 
10170 10169 10171     5 
10170 10169 10172     5 
10171 10169 10172     5 
10169 10172 10173     5 
10169 10172 10174     5 
10169 10172 10175     5 
10173 10172 10174     5 
10173 10172 10175     5 
10174 10172 10175     5 
10172 10175 10176     5 
10172 10175 10177     5 
10172 10175 10178     5 
10176 10175 10177     5 
10176 10175 10178     5 
10177 10175 10178     5 
10175 10178 10179     5 
10175 10178 10180     5 
10175 10178 10181     5 
10179 10178 10180     5 
10179 10178 10181     5 
10180 10178 10181     5 
10178 10181 10182     5 
10178 10181 10183     5 
10178 10181 10184     5 
10182 10181 10183     5 
10182 10181 10184     5 
10183 10181 10184     5 
10186 10185 10189     5 
10186 10185 10193     5 
10186 10185 10197     5 
10189 10185 10193     5 
10189 10185 10197     5 
10193 10185 10197     5 
10185 10186 10187     5 
10185 10186 10188     5 
10185 10186 10201     5 
10187 10186 10188     5 
10187 10186 10201     5 
10188 10186 10201     5 
10185 10189 10190     5 
10185 10189 10191     5 
10185 10189 10192     5 
10190 10189 10191     5 
10190 10189 10192     5 
10191 10189 10192     5 
10185 10193 10194     5 
10185 10193 10195     5 
10185 10193 10196     5 
10194 10193 10195     5 
10194 10193 10196     5 
10195 10193 10196     5 
10185 10197 10198     5 
10185 10197 10199     5 
10185 10197 10200     5 
10198 10197 10199     5 
10198 10197 10200     5 
10199 10197 10200     5 
10186 10201 10202     5 
10186 10201 10203     5 
10186 10201 10207     5 
10202 10201 10203     5 
10202 10201 10207     5 
10203 10201 10207     5 
10205 10204 10206     5 
10205 10204 10207     5 
10205 10204 10208     5 
10206 10204 10207     5 
10206 10204 10208     5 
10207 10204 10208     5 
10201 10207 10204     5 
10204 10208 10209     5 
10208 10209 10210     5 
10208 10209 10211     5 
10208 10209 10212     5 
10210 10209 10211     5 
10210 10209 10212     5 
10211 10209 10212     5 
10209 10212 10213     5 
10209 10212 10214     5 
10209 10212 10220     5 
10213 10212 10214     5 
10213 10212 10220     5 
10214 10212 10220     5 
10212 10214 10215     5 
10214 10215 10216     5 
10214 10215 10217     5 
10216 10215 10217     5 
10215 10217 10218     5 
10215 10217 10219     5 
10215 10217 10229     5 
10218 10217 10219     5 
10218 10217 10229     5 
10219 10217 10229     5 
10212 10220 10221     5 
10212 10220 10222     5 
10212 10220 10223     5 
10221 10220 10222     5 
10221 10220 10223     5 
10222 10220 10223     5 
10220 10223 10224     5 
10223 10224 10225     5 
10223 10224 10226     5 
10225 10224 10226     5 
10224 10226 10227     5 
10224 10226 10228     5 
10224 10226 10276     5 
10227 10226 10228     5 
10227 10226 10276     5 
10228 10226 10276     5 
10217 10229 10230     5 
10217 10229 10231     5 
10217 10229 10232     5 
10230 10229 10231     5 
10230 10229 10232     5 
10231 10229 10232     5 
10229 10232 10233     5 
10229 10232 10234     5 
10229 10232 10235     5 
10233 10232 10234     5 
10233 10232 10235     5 
10234 10232 10235     5 
10232 10235 10236     5 
10232 10235 10237     5 
10232 10235 10238     5 
10236 10235 10237     5 
10236 10235 10238     5 
10237 10235 10238     5 
10235 10238 10239     5 
10235 10238 10240     5 
10235 10238 10241     5 
10239 10238 10240     5 
10239 10238 10241     5 
10240 10238 10241     5 
10238 10241 10242     5 
10238 10241 10243     5 
10238 10241 10244     5 
10242 10241 10243     5 
10242 10241 10244     5 
10243 10241 10244     5 
10241 10244 10245     5 
10241 10244 10246     5 
10241 10244 10247     5 
10245 10244 10246     5 
10245 10244 10247     5 
10246 10244 10247     5 
10244 10247 10248     5 
10244 10247 10249     5 
10248 10247 10249     5 
10247 10249 10250     5 
10247 10249 10251     5 
10250 10249 10251     5 
10249 10251 10252     5 
10249 10251 10253     5 
10249 10251 10254     5 
10252 10251 10253     5 
10252 10251 10254     5 
10253 10251 10254     5 
10251 10254 10255     5 
10251 10254 10256     5 
10251 10254 10257     5 
10255 10254 10256     5 
10255 10254 10257     5 
10256 10254 10257     5 
10254 10257 10258     5 
10254 10257 10259     5 
10254 10257 10260     5 
10258 10257 10259     5 
10258 10257 10260     5 
10259 10257 10260     5 
10257 10260 10261     5 
10257 10260 10262     5 
10257 10260 10263     5 
10261 10260 10262     5 
10261 10260 10263     5 
10262 10260 10263     5 
10260 10263 10264     5 
10260 10263 10265     5 
10260 10263 10266     5 
10264 10263 10265     5 
10264 10263 10266     5 
10265 10263 10266     5 
10263 10266 10267     5 
10263 10266 10268     5 
10263 10266 10269     5 
10267 10266 10268     5 
10267 10266 10269     5 
10268 10266 10269     5 
10266 10269 10270     5 
10266 10269 10271     5 
10266 10269 10272     5 
10270 10269 10271     5 
10270 10269 10272     5 
10271 10269 10272     5 
10269 10272 10273     5 
10269 10272 10274     5 
10269 10272 10275     5 
10273 10272 10274     5 
10273 10272 10275     5 
10274 10272 10275     5 
10226 10276 10277     5 
10226 10276 10278     5 
10226 10276 10279     5 
10277 10276 10278     5 
10277 10276 10279     5 
10278 10276 10279     5 
10276 10279 10280     5 
10276 10279 10281     5 
10276 10279 10282     5 
10280 10279 10281     5 
10280 10279 10282     5 
10281 10279 10282     5 
10279 10282 10283     5 
10279 10282 10284     5 
10279 10282 10285     5 
10283 10282 10284     5 
10283 10282 10285     5 
10284 10282 10285     5 
10282 10285 10286     5 
10282 10285 10287     5 
10282 10285 10288     5 
10286 10285 10287     5 
10286 10285 10288     5 
10287 10285 10288     5 
10285 10288 10289     5 
10285 10288 10290     5 
10285 10288 10291     5 
10289 10288 10290     5 
10289 10288 10291     5 
10290 10288 10291     5 
10288 10291 10292     5 
10288 10291 10293     5 
10288 10291 10294     5 
10292 10291 10293     5 
10292 10291 10294     5 
10293 10291 10294     5 
10291 10294 10295     5 
10291 10294 10296     5 
10291 10294 10297     5 
10295 10294 10296     5 
10295 10294 10297     5 
10296 10294 10297     5 
10294 10297 10298     5 
10294 10297 10299     5 
10294 10297 10300     5 
10298 10297 10299     5 
10298 10297 10300     5 
10299 10297 10300     5 
10297 10300 10301     5 
10297 10300 10302     5 
10297 10300 10303     5 
10301 10300 10302     5 
10301 10300 10303     5 
10302 10300 10303     5 
10300 10303 10304     5 
10300 10303 10305     5 
10300 10303 10306     5 
10304 10303 10305     5 
10304 10303 10306     5 
10305 10303 10306     5 
10303 10306 10307     5 
10303 10306 10308     5 
10303 10306 10309     5 
10307 10306 10308     5 
10307 10306 10309     5 
10308 10306 10309     5 
10306 10309 10310     5 
10306 10309 10311     5 
10306 10309 10312     5 
10310 10309 10311     5 
10310 10309 10312     5 
10311 10309 10312     5 
10309 10312 10313     5 
10309 10312 10314     5 
10309 10312 10315     5 
10313 10312 10314     5 
10313 10312 10315     5 
10314 10312 10315     5 
10312 10315 10316     5 
10312 10315 10317     5 
10312 10315 10318     5 
10316 10315 10317     5 
10316 10315 10318     5 
10317 10315 10318     5 
10320 10319 10323     5 
10320 10319 10327     5 
10320 10319 10331     5 
10323 10319 10327     5 
10323 10319 10331     5 
10327 10319 10331     5 
10319 10320 10321     5 
10319 10320 10322     5 
10319 10320 10335     5 
10321 10320 10322     5 
10321 10320 10335     5 
10322 10320 10335     5 
10319 10323 10324     5 
10319 10323 10325     5 
10319 10323 10326     5 
10324 10323 10325     5 
10324 10323 10326     5 
10325 10323 10326     5 
10319 10327 10328     5 
10319 10327 10329     5 
10319 10327 10330     5 
10328 10327 10329     5 
10328 10327 10330     5 
10329 10327 10330     5 
10319 10331 10332     5 
10319 10331 10333     5 
10319 10331 10334     5 
10332 10331 10333     5 
10332 10331 10334     5 
10333 10331 10334     5 
10320 10335 10336     5 
10320 10335 10337     5 
10320 10335 10341     5 
10336 10335 10337     5 
10336 10335 10341     5 
10337 10335 10341     5 
10339 10338 10340     5 
10339 10338 10341     5 
10339 10338 10342     5 
10340 10338 10341     5 
10340 10338 10342     5 
10341 10338 10342     5 
10335 10341 10338     5 
10338 10342 10343     5 
10342 10343 10344     5 
10342 10343 10345     5 
10342 10343 10346     5 
10344 10343 10345     5 
10344 10343 10346     5 
10345 10343 10346     5 
10343 10346 10347     5 
10343 10346 10348     5 
10343 10346 10354     5 
10347 10346 10348     5 
10347 10346 10354     5 
10348 10346 10354     5 
10346 10348 10349     5 
10348 10349 10350     5 
10348 10349 10351     5 
10350 10349 10351     5 
10349 10351 10352     5 
10349 10351 10353     5 
10349 10351 10363     5 
10352 10351 10353     5 
10352 10351 10363     5 
10353 10351 10363     5 
10346 10354 10355     5 
10346 10354 10356     5 
10346 10354 10357     5 
10355 10354 10356     5 
10355 10354 10357     5 
10356 10354 10357     5 
10354 10357 10358     5 
10357 10358 10359     5 
10357 10358 10360     5 
10359 10358 10360     5 
10358 10360 10361     5 
10358 10360 10362     5 
10358 10360 10410     5 
10361 10360 10362     5 
10361 10360 10410     5 
10362 10360 10410     5 
10351 10363 10364     5 
10351 10363 10365     5 
10351 10363 10366     5 
10364 10363 10365     5 
10364 10363 10366     5 
10365 10363 10366     5 
10363 10366 10367     5 
10363 10366 10368     5 
10363 10366 10369     5 
10367 10366 10368     5 
10367 10366 10369     5 
10368 10366 10369     5 
10366 10369 10370     5 
10366 10369 10371     5 
10366 10369 10372     5 
10370 10369 10371     5 
10370 10369 10372     5 
10371 10369 10372     5 
10369 10372 10373     5 
10369 10372 10374     5 
10369 10372 10375     5 
10373 10372 10374     5 
10373 10372 10375     5 
10374 10372 10375     5 
10372 10375 10376     5 
10372 10375 10377     5 
10372 10375 10378     5 
10376 10375 10377     5 
10376 10375 10378     5 
10377 10375 10378     5 
10375 10378 10379     5 
10375 10378 10380     5 
10375 10378 10381     5 
10379 10378 10380     5 
10379 10378 10381     5 
10380 10378 10381     5 
10378 10381 10382     5 
10378 10381 10383     5 
10382 10381 10383     5 
10381 10383 10384     5 
10381 10383 10385     5 
10384 10383 10385     5 
10383 10385 10386     5 
10383 10385 10387     5 
10383 10385 10388     5 
10386 10385 10387     5 
10386 10385 10388     5 
10387 10385 10388     5 
10385 10388 10389     5 
10385 10388 10390     5 
10385 10388 10391     5 
10389 10388 10390     5 
10389 10388 10391     5 
10390 10388 10391     5 
10388 10391 10392     5 
10388 10391 10393     5 
10388 10391 10394     5 
10392 10391 10393     5 
10392 10391 10394     5 
10393 10391 10394     5 
10391 10394 10395     5 
10391 10394 10396     5 
10391 10394 10397     5 
10395 10394 10396     5 
10395 10394 10397     5 
10396 10394 10397     5 
10394 10397 10398     5 
10394 10397 10399     5 
10394 10397 10400     5 
10398 10397 10399     5 
10398 10397 10400     5 
10399 10397 10400     5 
10397 10400 10401     5 
10397 10400 10402     5 
10397 10400 10403     5 
10401 10400 10402     5 
10401 10400 10403     5 
10402 10400 10403     5 
10400 10403 10404     5 
10400 10403 10405     5 
10400 10403 10406     5 
10404 10403 10405     5 
10404 10403 10406     5 
10405 10403 10406     5 
10403 10406 10407     5 
10403 10406 10408     5 
10403 10406 10409     5 
10407 10406 10408     5 
10407 10406 10409     5 
10408 10406 10409     5 
10360 10410 10411     5 
10360 10410 10412     5 
10360 10410 10413     5 
10411 10410 10412     5 
10411 10410 10413     5 
10412 10410 10413     5 
10410 10413 10414     5 
10410 10413 10415     5 
10410 10413 10416     5 
10414 10413 10415     5 
10414 10413 10416     5 
10415 10413 10416     5 
10413 10416 10417     5 
10413 10416 10418     5 
10413 10416 10419     5 
10417 10416 10418     5 
10417 10416 10419     5 
10418 10416 10419     5 
10416 10419 10420     5 
10416 10419 10421     5 
10416 10419 10422     5 
10420 10419 10421     5 
10420 10419 10422     5 
10421 10419 10422     5 
10419 10422 10423     5 
10419 10422 10424     5 
10419 10422 10425     5 
10423 10422 10424     5 
10423 10422 10425     5 
10424 10422 10425     5 
10422 10425 10426     5 
10422 10425 10427     5 
10422 10425 10428     5 
10426 10425 10427     5 
10426 10425 10428     5 
10427 10425 10428     5 
10425 10428 10429     5 
10425 10428 10430     5 
10425 10428 10431     5 
10429 10428 10430     5 
10429 10428 10431     5 
10430 10428 10431     5 
10428 10431 10432     5 
10428 10431 10433     5 
10428 10431 10434     5 
10432 10431 10433     5 
10432 10431 10434     5 
10433 10431 10434     5 
10431 10434 10435     5 
10431 10434 10436     5 
10431 10434 10437     5 
10435 10434 10436     5 
10435 10434 10437     5 
10436 10434 10437     5 
10434 10437 10438     5 
10434 10437 10439     5 
10434 10437 10440     5 
10438 10437 10439     5 
10438 10437 10440     5 
10439 10437 10440     5 
10437 10440 10441     5 
10437 10440 10442     5 
10437 10440 10443     5 
10441 10440 10442     5 
10441 10440 10443     5 
10442 10440 10443     5 
10440 10443 10444     5 
10440 10443 10445     5 
10440 10443 10446     5 
10444 10443 10445     5 
10444 10443 10446     5 
10445 10443 10446     5 
10443 10446 10447     5 
10443 10446 10448     5 
10443 10446 10449     5 
10447 10446 10448     5 
10447 10446 10449     5 
10448 10446 10449     5 
10446 10449 10450     5 
10446 10449 10451     5 
10446 10449 10452     5 
10450 10449 10451     5 
10450 10449 10452     5 
10451 10449 10452     5 
10454 10453 10457     5 
10454 10453 10461     5 
10454 10453 10465     5 
10457 10453 10461     5 
10457 10453 10465     5 
10461 10453 10465     5 
10453 10454 10455     5 
10453 10454 10456     5 
10453 10454 10469     5 
10455 10454 10456     5 
10455 10454 10469     5 
10456 10454 10469     5 
10453 10457 10458     5 
10453 10457 10459     5 
10453 10457 10460     5 
10458 10457 10459     5 
10458 10457 10460     5 
10459 10457 10460     5 
10453 10461 10462     5 
10453 10461 10463     5 
10453 10461 10464     5 
10462 10461 10463     5 
10462 10461 10464     5 
10463 10461 10464     5 
10453 10465 10466     5 
10453 10465 10467     5 
10453 10465 10468     5 
10466 10465 10467     5 
10466 10465 10468     5 
10467 10465 10468     5 
10454 10469 10470     5 
10454 10469 10471     5 
10454 10469 10475     5 
10470 10469 10471     5 
10470 10469 10475     5 
10471 10469 10475     5 
10473 10472 10474     5 
10473 10472 10475     5 
10473 10472 10476     5 
10474 10472 10475     5 
10474 10472 10476     5 
10475 10472 10476     5 
10469 10475 10472     5 
10472 10476 10477     5 
10476 10477 10478     5 
10476 10477 10479     5 
10476 10477 10480     5 
10478 10477 10479     5 
10478 10477 10480     5 
10479 10477 10480     5 
10477 10480 10481     5 
10477 10480 10482     5 
10477 10480 10488     5 
10481 10480 10482     5 
10481 10480 10488     5 
10482 10480 10488     5 
10480 10482 10483     5 
10482 10483 10484     5 
10482 10483 10485     5 
10484 10483 10485     5 
10483 10485 10486     5 
10483 10485 10487     5 
10483 10485 10497     5 
10486 10485 10487     5 
10486 10485 10497     5 
10487 10485 10497     5 
10480 10488 10489     5 
10480 10488 10490     5 
10480 10488 10491     5 
10489 10488 10490     5 
10489 10488 10491     5 
10490 10488 10491     5 
10488 10491 10492     5 
10491 10492 10493     5 
10491 10492 10494     5 
10493 10492 10494     5 
10492 10494 10495     5 
10492 10494 10496     5 
10492 10494 10544     5 
10495 10494 10496     5 
10495 10494 10544     5 
10496 10494 10544     5 
10485 10497 10498     5 
10485 10497 10499     5 
10485 10497 10500     5 
10498 10497 10499     5 
10498 10497 10500     5 
10499 10497 10500     5 
10497 10500 10501     5 
10497 10500 10502     5 
10497 10500 10503     5 
10501 10500 10502     5 
10501 10500 10503     5 
10502 10500 10503     5 
10500 10503 10504     5 
10500 10503 10505     5 
10500 10503 10506     5 
10504 10503 10505     5 
10504 10503 10506     5 
10505 10503 10506     5 
10503 10506 10507     5 
10503 10506 10508     5 
10503 10506 10509     5 
10507 10506 10508     5 
10507 10506 10509     5 
10508 10506 10509     5 
10506 10509 10510     5 
10506 10509 10511     5 
10506 10509 10512     5 
10510 10509 10511     5 
10510 10509 10512     5 
10511 10509 10512     5 
10509 10512 10513     5 
10509 10512 10514     5 
10509 10512 10515     5 
10513 10512 10514     5 
10513 10512 10515     5 
10514 10512 10515     5 
10512 10515 10516     5 
10512 10515 10517     5 
10516 10515 10517     5 
10515 10517 10518     5 
10515 10517 10519     5 
10518 10517 10519     5 
10517 10519 10520     5 
10517 10519 10521     5 
10517 10519 10522     5 
10520 10519 10521     5 
10520 10519 10522     5 
10521 10519 10522     5 
10519 10522 10523     5 
10519 10522 10524     5 
10519 10522 10525     5 
10523 10522 10524     5 
10523 10522 10525     5 
10524 10522 10525     5 
10522 10525 10526     5 
10522 10525 10527     5 
10522 10525 10528     5 
10526 10525 10527     5 
10526 10525 10528     5 
10527 10525 10528     5 
10525 10528 10529     5 
10525 10528 10530     5 
10525 10528 10531     5 
10529 10528 10530     5 
10529 10528 10531     5 
10530 10528 10531     5 
10528 10531 10532     5 
10528 10531 10533     5 
10528 10531 10534     5 
10532 10531 10533     5 
10532 10531 10534     5 
10533 10531 10534     5 
10531 10534 10535     5 
10531 10534 10536     5 
10531 10534 10537     5 
10535 10534 10536     5 
10535 10534 10537     5 
10536 10534 10537     5 
10534 10537 10538     5 
10534 10537 10539     5 
10534 10537 10540     5 
10538 10537 10539     5 
10538 10537 10540     5 
10539 10537 10540     5 
10537 10540 10541     5 
10537 10540 10542     5 
10537 10540 10543     5 
10541 10540 10542     5 
10541 10540 10543     5 
10542 10540 10543     5 
10494 10544 10545     5 
10494 10544 10546     5 
10494 10544 10547     5 
10545 10544 10546     5 
10545 10544 10547     5 
10546 10544 10547     5 
10544 10547 10548     5 
10544 10547 10549     5 
10544 10547 10550     5 
10548 10547 10549     5 
10548 10547 10550     5 
10549 10547 10550     5 
10547 10550 10551     5 
10547 10550 10552     5 
10547 10550 10553     5 
10551 10550 10552     5 
10551 10550 10553     5 
10552 10550 10553     5 
10550 10553 10554     5 
10550 10553 10555     5 
10550 10553 10556     5 
10554 10553 10555     5 
10554 10553 10556     5 
10555 10553 10556     5 
10553 10556 10557     5 
10553 10556 10558     5 
10553 10556 10559     5 
10557 10556 10558     5 
10557 10556 10559     5 
10558 10556 10559     5 
10556 10559 10560     5 
10556 10559 10561     5 
10556 10559 10562     5 
10560 10559 10561     5 
10560 10559 10562     5 
10561 10559 10562     5 
10559 10562 10563     5 
10559 10562 10564     5 
10559 10562 10565     5 
10563 10562 10564     5 
10563 10562 10565     5 
10564 10562 10565     5 
10562 10565 10566     5 
10562 10565 10567     5 
10562 10565 10568     5 
10566 10565 10567     5 
10566 10565 10568     5 
10567 10565 10568     5 
10565 10568 10569     5 
10565 10568 10570     5 
10565 10568 10571     5 
10569 10568 10570     5 
10569 10568 10571     5 
10570 10568 10571     5 
10568 10571 10572     5 
10568 10571 10573     5 
10568 10571 10574     5 
10572 10571 10573     5 
10572 10571 10574     5 
10573 10571 10574     5 
10571 10574 10575     5 
10571 10574 10576     5 
10571 10574 10577     5 
10575 10574 10576     5 
10575 10574 10577     5 
10576 10574 10577     5 
10574 10577 10578     5 
10574 10577 10579     5 
10574 10577 10580     5 
10578 10577 10579     5 
10578 10577 10580     5 
10579 10577 10580     5 
10577 10580 10581     5 
10577 10580 10582     5 
10577 10580 10583     5 
10581 10580 10582     5 
10581 10580 10583     5 
10582 10580 10583     5 
10580 10583 10584     5 
10580 10583 10585     5 
10580 10583 10586     5 
10584 10583 10585     5 
10584 10583 10586     5 
10585 10583 10586     5 
10588 10587 10591     5 
10588 10587 10595     5 
10588 10587 10599     5 
10591 10587 10595     5 
10591 10587 10599     5 
10595 10587 10599     5 
10587 10588 10589     5 
10587 10588 10590     5 
10587 10588 10603     5 
10589 10588 10590     5 
10589 10588 10603     5 
10590 10588 10603     5 
10587 10591 10592     5 
10587 10591 10593     5 
10587 10591 10594     5 
10592 10591 10593     5 
10592 10591 10594     5 
10593 10591 10594     5 
10587 10595 10596     5 
10587 10595 10597     5 
10587 10595 10598     5 
10596 10595 10597     5 
10596 10595 10598     5 
10597 10595 10598     5 
10587 10599 10600     5 
10587 10599 10601     5 
10587 10599 10602     5 
10600 10599 10601     5 
10600 10599 10602     5 
10601 10599 10602     5 
10588 10603 10604     5 
10588 10603 10605     5 
10588 10603 10609     5 
10604 10603 10605     5 
10604 10603 10609     5 
10605 10603 10609     5 
10607 10606 10608     5 
10607 10606 10609     5 
10607 10606 10610     5 
10608 10606 10609     5 
10608 10606 10610     5 
10609 10606 10610     5 
10603 10609 10606     5 
10606 10610 10611     5 
10610 10611 10612     5 
10610 10611 10613     5 
10610 10611 10614     5 
10612 10611 10613     5 
10612 10611 10614     5 
10613 10611 10614     5 
10611 10614 10615     5 
10611 10614 10616     5 
10611 10614 10622     5 
10615 10614 10616     5 
10615 10614 10622     5 
10616 10614 10622     5 
10614 10616 10617     5 
10616 10617 10618     5 
10616 10617 10619     5 
10618 10617 10619     5 
10617 10619 10620     5 
10617 10619 10621     5 
10617 10619 10631     5 
10620 10619 10621     5 
10620 10619 10631     5 
10621 10619 10631     5 
10614 10622 10623     5 
10614 10622 10624     5 
10614 10622 10625     5 
10623 10622 10624     5 
10623 10622 10625     5 
10624 10622 10625     5 
10622 10625 10626     5 
10625 10626 10627     5 
10625 10626 10628     5 
10627 10626 10628     5 
10626 10628 10629     5 
10626 10628 10630     5 
10626 10628 10678     5 
10629 10628 10630     5 
10629 10628 10678     5 
10630 10628 10678     5 
10619 10631 10632     5 
10619 10631 10633     5 
10619 10631 10634     5 
10632 10631 10633     5 
10632 10631 10634     5 
10633 10631 10634     5 
10631 10634 10635     5 
10631 10634 10636     5 
10631 10634 10637     5 
10635 10634 10636     5 
10635 10634 10637     5 
10636 10634 10637     5 
10634 10637 10638     5 
10634 10637 10639     5 
10634 10637 10640     5 
10638 10637 10639     5 
10638 10637 10640     5 
10639 10637 10640     5 
10637 10640 10641     5 
10637 10640 10642     5 
10637 10640 10643     5 
10641 10640 10642     5 
10641 10640 10643     5 
10642 10640 10643     5 
10640 10643 10644     5 
10640 10643 10645     5 
10640 10643 10646     5 
10644 10643 10645     5 
10644 10643 10646     5 
10645 10643 10646     5 
10643 10646 10647     5 
10643 10646 10648     5 
10643 10646 10649     5 
10647 10646 10648     5 
10647 10646 10649     5 
10648 10646 10649     5 
10646 10649 10650     5 
10646 10649 10651     5 
10650 10649 10651     5 
10649 10651 10652     5 
10649 10651 10653     5 
10652 10651 10653     5 
10651 10653 10654     5 
10651 10653 10655     5 
10651 10653 10656     5 
10654 10653 10655     5 
10654 10653 10656     5 
10655 10653 10656     5 
10653 10656 10657     5 
10653 10656 10658     5 
10653 10656 10659     5 
10657 10656 10658     5 
10657 10656 10659     5 
10658 10656 10659     5 
10656 10659 10660     5 
10656 10659 10661     5 
10656 10659 10662     5 
10660 10659 10661     5 
10660 10659 10662     5 
10661 10659 10662     5 
10659 10662 10663     5 
10659 10662 10664     5 
10659 10662 10665     5 
10663 10662 10664     5 
10663 10662 10665     5 
10664 10662 10665     5 
10662 10665 10666     5 
10662 10665 10667     5 
10662 10665 10668     5 
10666 10665 10667     5 
10666 10665 10668     5 
10667 10665 10668     5 
10665 10668 10669     5 
10665 10668 10670     5 
10665 10668 10671     5 
10669 10668 10670     5 
10669 10668 10671     5 
10670 10668 10671     5 
10668 10671 10672     5 
10668 10671 10673     5 
10668 10671 10674     5 
10672 10671 10673     5 
10672 10671 10674     5 
10673 10671 10674     5 
10671 10674 10675     5 
10671 10674 10676     5 
10671 10674 10677     5 
10675 10674 10676     5 
10675 10674 10677     5 
10676 10674 10677     5 
10628 10678 10679     5 
10628 10678 10680     5 
10628 10678 10681     5 
10679 10678 10680     5 
10679 10678 10681     5 
10680 10678 10681     5 
10678 10681 10682     5 
10678 10681 10683     5 
10678 10681 10684     5 
10682 10681 10683     5 
10682 10681 10684     5 
10683 10681 10684     5 
10681 10684 10685     5 
10681 10684 10686     5 
10681 10684 10687     5 
10685 10684 10686     5 
10685 10684 10687     5 
10686 10684 10687     5 
10684 10687 10688     5 
10684 10687 10689     5 
10684 10687 10690     5 
10688 10687 10689     5 
10688 10687 10690     5 
10689 10687 10690     5 
10687 10690 10691     5 
10687 10690 10692     5 
10687 10690 10693     5 
10691 10690 10692     5 
10691 10690 10693     5 
10692 10690 10693     5 
10690 10693 10694     5 
10690 10693 10695     5 
10690 10693 10696     5 
10694 10693 10695     5 
10694 10693 10696     5 
10695 10693 10696     5 
10693 10696 10697     5 
10693 10696 10698     5 
10693 10696 10699     5 
10697 10696 10698     5 
10697 10696 10699     5 
10698 10696 10699     5 
10696 10699 10700     5 
10696 10699 10701     5 
10696 10699 10702     5 
10700 10699 10701     5 
10700 10699 10702     5 
10701 10699 10702     5 
10699 10702 10703     5 
10699 10702 10704     5 
10699 10702 10705     5 
10703 10702 10704     5 
10703 10702 10705     5 
10704 10702 10705     5 
10702 10705 10706     5 
10702 10705 10707     5 
10702 10705 10708     5 
10706 10705 10707     5 
10706 10705 10708     5 
10707 10705 10708     5 
10705 10708 10709     5 
10705 10708 10710     5 
10705 10708 10711     5 
10709 10708 10710     5 
10709 10708 10711     5 
10710 10708 10711     5 
10708 10711 10712     5 
10708 10711 10713     5 
10708 10711 10714     5 
10712 10711 10713     5 
10712 10711 10714     5 
10713 10711 10714     5 
10711 10714 10715     5 
10711 10714 10716     5 
10711 10714 10717     5 
10715 10714 10716     5 
10715 10714 10717     5 
10716 10714 10717     5 
10714 10717 10718     5 
10714 10717 10719     5 
10714 10717 10720     5 
10718 10717 10719     5 
10718 10717 10720     5 
10719 10717 10720     5 
10722 10721 10725     5 
10722 10721 10729     5 
10722 10721 10733     5 
10725 10721 10729     5 
10725 10721 10733     5 
10729 10721 10733     5 
10721 10722 10723     5 
10721 10722 10724     5 
10721 10722 10737     5 
10723 10722 10724     5 
10723 10722 10737     5 
10724 10722 10737     5 
10721 10725 10726     5 
10721 10725 10727     5 
10721 10725 10728     5 
10726 10725 10727     5 
10726 10725 10728     5 
10727 10725 10728     5 
10721 10729 10730     5 
10721 10729 10731     5 
10721 10729 10732     5 
10730 10729 10731     5 
10730 10729 10732     5 
10731 10729 10732     5 
10721 10733 10734     5 
10721 10733 10735     5 
10721 10733 10736     5 
10734 10733 10735     5 
10734 10733 10736     5 
10735 10733 10736     5 
10722 10737 10738     5 
10722 10737 10739     5 
10722 10737 10743     5 
10738 10737 10739     5 
10738 10737 10743     5 
10739 10737 10743     5 
10741 10740 10742     5 
10741 10740 10743     5 
10741 10740 10744     5 
10742 10740 10743     5 
10742 10740 10744     5 
10743 10740 10744     5 
10737 10743 10740     5 
10740 10744 10745     5 
10744 10745 10746     5 
10744 10745 10747     5 
10744 10745 10748     5 
10746 10745 10747     5 
10746 10745 10748     5 
10747 10745 10748     5 
10745 10748 10749     5 
10745 10748 10750     5 
10745 10748 10756     5 
10749 10748 10750     5 
10749 10748 10756     5 
10750 10748 10756     5 
10748 10750 10751     5 
10750 10751 10752     5 
10750 10751 10753     5 
10752 10751 10753     5 
10751 10753 10754     5 
10751 10753 10755     5 
10751 10753 10765     5 
10754 10753 10755     5 
10754 10753 10765     5 
10755 10753 10765     5 
10748 10756 10757     5 
10748 10756 10758     5 
10748 10756 10759     5 
10757 10756 10758     5 
10757 10756 10759     5 
10758 10756 10759     5 
10756 10759 10760     5 
10759 10760 10761     5 
10759 10760 10762     5 
10761 10760 10762     5 
10760 10762 10763     5 
10760 10762 10764     5 
10760 10762 10812     5 
10763 10762 10764     5 
10763 10762 10812     5 
10764 10762 10812     5 
10753 10765 10766     5 
10753 10765 10767     5 
10753 10765 10768     5 
10766 10765 10767     5 
10766 10765 10768     5 
10767 10765 10768     5 
10765 10768 10769     5 
10765 10768 10770     5 
10765 10768 10771     5 
10769 10768 10770     5 
10769 10768 10771     5 
10770 10768 10771     5 
10768 10771 10772     5 
10768 10771 10773     5 
10768 10771 10774     5 
10772 10771 10773     5 
10772 10771 10774     5 
10773 10771 10774     5 
10771 10774 10775     5 
10771 10774 10776     5 
10771 10774 10777     5 
10775 10774 10776     5 
10775 10774 10777     5 
10776 10774 10777     5 
10774 10777 10778     5 
10774 10777 10779     5 
10774 10777 10780     5 
10778 10777 10779     5 
10778 10777 10780     5 
10779 10777 10780     5 
10777 10780 10781     5 
10777 10780 10782     5 
10777 10780 10783     5 
10781 10780 10782     5 
10781 10780 10783     5 
10782 10780 10783     5 
10780 10783 10784     5 
10780 10783 10785     5 
10784 10783 10785     5 
10783 10785 10786     5 
10783 10785 10787     5 
10786 10785 10787     5 
10785 10787 10788     5 
10785 10787 10789     5 
10785 10787 10790     5 
10788 10787 10789     5 
10788 10787 10790     5 
10789 10787 10790     5 
10787 10790 10791     5 
10787 10790 10792     5 
10787 10790 10793     5 
10791 10790 10792     5 
10791 10790 10793     5 
10792 10790 10793     5 
10790 10793 10794     5 
10790 10793 10795     5 
10790 10793 10796     5 
10794 10793 10795     5 
10794 10793 10796     5 
10795 10793 10796     5 
10793 10796 10797     5 
10793 10796 10798     5 
10793 10796 10799     5 
10797 10796 10798     5 
10797 10796 10799     5 
10798 10796 10799     5 
10796 10799 10800     5 
10796 10799 10801     5 
10796 10799 10802     5 
10800 10799 10801     5 
10800 10799 10802     5 
10801 10799 10802     5 
10799 10802 10803     5 
10799 10802 10804     5 
10799 10802 10805     5 
10803 10802 10804     5 
10803 10802 10805     5 
10804 10802 10805     5 
10802 10805 10806     5 
10802 10805 10807     5 
10802 10805 10808     5 
10806 10805 10807     5 
10806 10805 10808     5 
10807 10805 10808     5 
10805 10808 10809     5 
10805 10808 10810     5 
10805 10808 10811     5 
10809 10808 10810     5 
10809 10808 10811     5 
10810 10808 10811     5 
10762 10812 10813     5 
10762 10812 10814     5 
10762 10812 10815     5 
10813 10812 10814     5 
10813 10812 10815     5 
10814 10812 10815     5 
10812 10815 10816     5 
10812 10815 10817     5 
10812 10815 10818     5 
10816 10815 10817     5 
10816 10815 10818     5 
10817 10815 10818     5 
10815 10818 10819     5 
10815 10818 10820     5 
10815 10818 10821     5 
10819 10818 10820     5 
10819 10818 10821     5 
10820 10818 10821     5 
10818 10821 10822     5 
10818 10821 10823     5 
10818 10821 10824     5 
10822 10821 10823     5 
10822 10821 10824     5 
10823 10821 10824     5 
10821 10824 10825     5 
10821 10824 10826     5 
10821 10824 10827     5 
10825 10824 10826     5 
10825 10824 10827     5 
10826 10824 10827     5 
10824 10827 10828     5 
10824 10827 10829     5 
10824 10827 10830     5 
10828 10827 10829     5 
10828 10827 10830     5 
10829 10827 10830     5 
10827 10830 10831     5 
10827 10830 10832     5 
10827 10830 10833     5 
10831 10830 10832     5 
10831 10830 10833     5 
10832 10830 10833     5 
10830 10833 10834     5 
10830 10833 10835     5 
10830 10833 10836     5 
10834 10833 10835     5 
10834 10833 10836     5 
10835 10833 10836     5 
10833 10836 10837     5 
10833 10836 10838     5 
10833 10836 10839     5 
10837 10836 10838     5 
10837 10836 10839     5 
10838 10836 10839     5 
10836 10839 10840     5 
10836 10839 10841     5 
10836 10839 10842     5 
10840 10839 10841     5 
10840 10839 10842     5 
10841 10839 10842     5 
10839 10842 10843     5 
10839 10842 10844     5 
10839 10842 10845     5 
10843 10842 10844     5 
10843 10842 10845     5 
10844 10842 10845     5 
10842 10845 10846     5 
10842 10845 10847     5 
10842 10845 10848     5 
10846 10845 10847     5 
10846 10845 10848     5 
10847 10845 10848     5 
10845 10848 10849     5 
10845 10848 10850     5 
10845 10848 10851     5 
10849 10848 10850     5 
10849 10848 10851     5 
10850 10848 10851     5 
10848 10851 10852     5 
10848 10851 10853     5 
10848 10851 10854     5 
10852 10851 10853     5 
10852 10851 10854     5 
10853 10851 10854     5 
10856 10855 10859     5 
10856 10855 10863     5 
10856 10855 10867     5 
10859 10855 10863     5 
10859 10855 10867     5 
10863 10855 10867     5 
10855 10856 10857     5 
10855 10856 10858     5 
10855 10856 10871     5 
10857 10856 10858     5 
10857 10856 10871     5 
10858 10856 10871     5 
10855 10859 10860     5 
10855 10859 10861     5 
10855 10859 10862     5 
10860 10859 10861     5 
10860 10859 10862     5 
10861 10859 10862     5 
10855 10863 10864     5 
10855 10863 10865     5 
10855 10863 10866     5 
10864 10863 10865     5 
10864 10863 10866     5 
10865 10863 10866     5 
10855 10867 10868     5 
10855 10867 10869     5 
10855 10867 10870     5 
10868 10867 10869     5 
10868 10867 10870     5 
10869 10867 10870     5 
10856 10871 10872     5 
10856 10871 10873     5 
10856 10871 10877     5 
10872 10871 10873     5 
10872 10871 10877     5 
10873 10871 10877     5 
10875 10874 10876     5 
10875 10874 10877     5 
10875 10874 10878     5 
10876 10874 10877     5 
10876 10874 10878     5 
10877 10874 10878     5 
10871 10877 10874     5 
10874 10878 10879     5 
10878 10879 10880     5 
10878 10879 10881     5 
10878 10879 10882     5 
10880 10879 10881     5 
10880 10879 10882     5 
10881 10879 10882     5 
10879 10882 10883     5 
10879 10882 10884     5 
10879 10882 10890     5 
10883 10882 10884     5 
10883 10882 10890     5 
10884 10882 10890     5 
10882 10884 10885     5 
10884 10885 10886     5 
10884 10885 10887     5 
10886 10885 10887     5 
10885 10887 10888     5 
10885 10887 10889     5 
10885 10887 10899     5 
10888 10887 10889     5 
10888 10887 10899     5 
10889 10887 10899     5 
10882 10890 10891     5 
10882 10890 10892     5 
10882 10890 10893     5 
10891 10890 10892     5 
10891 10890 10893     5 
10892 10890 10893     5 
10890 10893 10894     5 
10893 10894 10895     5 
10893 10894 10896     5 
10895 10894 10896     5 
10894 10896 10897     5 
10894 10896 10898     5 
10894 10896 10946     5 
10897 10896 10898     5 
10897 10896 10946     5 
10898 10896 10946     5 
10887 10899 10900     5 
10887 10899 10901     5 
10887 10899 10902     5 
10900 10899 10901     5 
10900 10899 10902     5 
10901 10899 10902     5 
10899 10902 10903     5 
10899 10902 10904     5 
10899 10902 10905     5 
10903 10902 10904     5 
10903 10902 10905     5 
10904 10902 10905     5 
10902 10905 10906     5 
10902 10905 10907     5 
10902 10905 10908     5 
10906 10905 10907     5 
10906 10905 10908     5 
10907 10905 10908     5 
10905 10908 10909     5 
10905 10908 10910     5 
10905 10908 10911     5 
10909 10908 10910     5 
10909 10908 10911     5 
10910 10908 10911     5 
10908 10911 10912     5 
10908 10911 10913     5 
10908 10911 10914     5 
10912 10911 10913     5 
10912 10911 10914     5 
10913 10911 10914     5 
10911 10914 10915     5 
10911 10914 10916     5 
10911 10914 10917     5 
10915 10914 10916     5 
10915 10914 10917     5 
10916 10914 10917     5 
10914 10917 10918     5 
10914 10917 10919     5 
10918 10917 10919     5 
10917 10919 10920     5 
10917 10919 10921     5 
10920 10919 10921     5 
10919 10921 10922     5 
10919 10921 10923     5 
10919 10921 10924     5 
10922 10921 10923     5 
10922 10921 10924     5 
10923 10921 10924     5 
10921 10924 10925     5 
10921 10924 10926     5 
10921 10924 10927     5 
10925 10924 10926     5 
10925 10924 10927     5 
10926 10924 10927     5 
10924 10927 10928     5 
10924 10927 10929     5 
10924 10927 10930     5 
10928 10927 10929     5 
10928 10927 10930     5 
10929 10927 10930     5 
10927 10930 10931     5 
10927 10930 10932     5 
10927 10930 10933     5 
10931 10930 10932     5 
10931 10930 10933     5 
10932 10930 10933     5 
10930 10933 10934     5 
10930 10933 10935     5 
10930 10933 10936     5 
10934 10933 10935     5 
10934 10933 10936     5 
10935 10933 10936     5 
10933 10936 10937     5 
10933 10936 10938     5 
10933 10936 10939     5 
10937 10936 10938     5 
10937 10936 10939     5 
10938 10936 10939     5 
10936 10939 10940     5 
10936 10939 10941     5 
10936 10939 10942     5 
10940 10939 10941     5 
10940 10939 10942     5 
10941 10939 10942     5 
10939 10942 10943     5 
10939 10942 10944     5 
10939 10942 10945     5 
10943 10942 10944     5 
10943 10942 10945     5 
10944 10942 10945     5 
10896 10946 10947     5 
10896 10946 10948     5 
10896 10946 10949     5 
10947 10946 10948     5 
10947 10946 10949     5 
10948 10946 10949     5 
10946 10949 10950     5 
10946 10949 10951     5 
10946 10949 10952     5 
10950 10949 10951     5 
10950 10949 10952     5 
10951 10949 10952     5 
10949 10952 10953     5 
10949 10952 10954     5 
10949 10952 10955     5 
10953 10952 10954     5 
10953 10952 10955     5 
10954 10952 10955     5 
10952 10955 10956     5 
10952 10955 10957     5 
10952 10955 10958     5 
10956 10955 10957     5 
10956 10955 10958     5 
10957 10955 10958     5 
10955 10958 10959     5 
10955 10958 10960     5 
10955 10958 10961     5 
10959 10958 10960     5 
10959 10958 10961     5 
10960 10958 10961     5 
10958 10961 10962     5 
10958 10961 10963     5 
10958 10961 10964     5 
10962 10961 10963     5 
10962 10961 10964     5 
10963 10961 10964     5 
10961 10964 10965     5 
10961 10964 10966     5 
10961 10964 10967     5 
10965 10964 10966     5 
10965 10964 10967     5 
10966 10964 10967     5 
10964 10967 10968     5 
10964 10967 10969     5 
10964 10967 10970     5 
10968 10967 10969     5 
10968 10967 10970     5 
10969 10967 10970     5 
10967 10970 10971     5 
10967 10970 10972     5 
10967 10970 10973     5 
10971 10970 10972     5 
10971 10970 10973     5 
10972 10970 10973     5 
10970 10973 10974     5 
10970 10973 10975     5 
10970 10973 10976     5 
10974 10973 10975     5 
10974 10973 10976     5 
10975 10973 10976     5 
10973 10976 10977     5 
10973 10976 10978     5 
10973 10976 10979     5 
10977 10976 10978     5 
10977 10976 10979     5 
10978 10976 10979     5 
10976 10979 10980     5 
10976 10979 10981     5 
10976 10979 10982     5 
10980 10979 10981     5 
10980 10979 10982     5 
10981 10979 10982     5 
10979 10982 10983     5 
10979 10982 10984     5 
10979 10982 10985     5 
10983 10982 10984     5 
10983 10982 10985     5 
10984 10982 10985     5 
10982 10985 10986     5 
10982 10985 10987     5 
10982 10985 10988     5 
10986 10985 10987     5 
10986 10985 10988     5 
10987 10985 10988     5 
10990 10989 10993     5 
10990 10989 10997     5 
10990 10989 11001     5 
10993 10989 10997     5 
10993 10989 11001     5 
10997 10989 11001     5 
10989 10990 10991     5 
10989 10990 10992     5 
10989 10990 11005     5 
10991 10990 10992     5 
10991 10990 11005     5 
10992 10990 11005     5 
10989 10993 10994     5 
10989 10993 10995     5 
10989 10993 10996     5 
10994 10993 10995     5 
10994 10993 10996     5 
10995 10993 10996     5 
10989 10997 10998     5 
10989 10997 10999     5 
10989 10997 11000     5 
10998 10997 10999     5 
10998 10997 11000     5 
10999 10997 11000     5 
10989 11001 11002     5 
10989 11001 11003     5 
10989 11001 11004     5 
11002 11001 11003     5 
11002 11001 11004     5 
11003 11001 11004     5 
10990 11005 11006     5 
10990 11005 11007     5 
10990 11005 11011     5 
11006 11005 11007     5 
11006 11005 11011     5 
11007 11005 11011     5 
11009 11008 11010     5 
11009 11008 11011     5 
11009 11008 11012     5 
11010 11008 11011     5 
11010 11008 11012     5 
11011 11008 11012     5 
11005 11011 11008     5 
11008 11012 11013     5 
11012 11013 11014     5 
11012 11013 11015     5 
11012 11013 11016     5 
11014 11013 11015     5 
11014 11013 11016     5 
11015 11013 11016     5 
11013 11016 11017     5 
11013 11016 11018     5 
11013 11016 11024     5 
11017 11016 11018     5 
11017 11016 11024     5 
11018 11016 11024     5 
11016 11018 11019     5 
11018 11019 11020     5 
11018 11019 11021     5 
11020 11019 11021     5 
11019 11021 11022     5 
11019 11021 11023     5 
11019 11021 11033     5 
11022 11021 11023     5 
11022 11021 11033     5 
11023 11021 11033     5 
11016 11024 11025     5 
11016 11024 11026     5 
11016 11024 11027     5 
11025 11024 11026     5 
11025 11024 11027     5 
11026 11024 11027     5 
11024 11027 11028     5 
11027 11028 11029     5 
11027 11028 11030     5 
11029 11028 11030     5 
11028 11030 11031     5 
11028 11030 11032     5 
11028 11030 11080     5 
11031 11030 11032     5 
11031 11030 11080     5 
11032 11030 11080     5 
11021 11033 11034     5 
11021 11033 11035     5 
11021 11033 11036     5 
11034 11033 11035     5 
11034 11033 11036     5 
11035 11033 11036     5 
11033 11036 11037     5 
11033 11036 11038     5 
11033 11036 11039     5 
11037 11036 11038     5 
11037 11036 11039     5 
11038 11036 11039     5 
11036 11039 11040     5 
11036 11039 11041     5 
11036 11039 11042     5 
11040 11039 11041     5 
11040 11039 11042     5 
11041 11039 11042     5 
11039 11042 11043     5 
11039 11042 11044     5 
11039 11042 11045     5 
11043 11042 11044     5 
11043 11042 11045     5 
11044 11042 11045     5 
11042 11045 11046     5 
11042 11045 11047     5 
11042 11045 11048     5 
11046 11045 11047     5 
11046 11045 11048     5 
11047 11045 11048     5 
11045 11048 11049     5 
11045 11048 11050     5 
11045 11048 11051     5 
11049 11048 11050     5 
11049 11048 11051     5 
11050 11048 11051     5 
11048 11051 11052     5 
11048 11051 11053     5 
11052 11051 11053     5 
11051 11053 11054     5 
11051 11053 11055     5 
11054 11053 11055     5 
11053 11055 11056     5 
11053 11055 11057     5 
11053 11055 11058     5 
11056 11055 11057     5 
11056 11055 11058     5 
11057 11055 11058     5 
11055 11058 11059     5 
11055 11058 11060     5 
11055 11058 11061     5 
11059 11058 11060     5 
11059 11058 11061     5 
11060 11058 11061     5 
11058 11061 11062     5 
11058 11061 11063     5 
11058 11061 11064     5 
11062 11061 11063     5 
11062 11061 11064     5 
11063 11061 11064     5 
11061 11064 11065     5 
11061 11064 11066     5 
11061 11064 11067     5 
11065 11064 11066     5 
11065 11064 11067     5 
11066 11064 11067     5 
11064 11067 11068     5 
11064 11067 11069     5 
11064 11067 11070     5 
11068 11067 11069     5 
11068 11067 11070     5 
11069 11067 11070     5 
11067 11070 11071     5 
11067 11070 11072     5 
11067 11070 11073     5 
11071 11070 11072     5 
11071 11070 11073     5 
11072 11070 11073     5 
11070 11073 11074     5 
11070 11073 11075     5 
11070 11073 11076     5 
11074 11073 11075     5 
11074 11073 11076     5 
11075 11073 11076     5 
11073 11076 11077     5 
11073 11076 11078     5 
11073 11076 11079     5 
11077 11076 11078     5 
11077 11076 11079     5 
11078 11076 11079     5 
11030 11080 11081     5 
11030 11080 11082     5 
11030 11080 11083     5 
11081 11080 11082     5 
11081 11080 11083     5 
11082 11080 11083     5 
11080 11083 11084     5 
11080 11083 11085     5 
11080 11083 11086     5 
11084 11083 11085     5 
11084 11083 11086     5 
11085 11083 11086     5 
11083 11086 11087     5 
11083 11086 11088     5 
11083 11086 11089     5 
11087 11086 11088     5 
11087 11086 11089     5 
11088 11086 11089     5 
11086 11089 11090     5 
11086 11089 11091     5 
11086 11089 11092     5 
11090 11089 11091     5 
11090 11089 11092     5 
11091 11089 11092     5 
11089 11092 11093     5 
11089 11092 11094     5 
11089 11092 11095     5 
11093 11092 11094     5 
11093 11092 11095     5 
11094 11092 11095     5 
11092 11095 11096     5 
11092 11095 11097     5 
11092 11095 11098     5 
11096 11095 11097     5 
11096 11095 11098     5 
11097 11095 11098     5 
11095 11098 11099     5 
11095 11098 11100     5 
11095 11098 11101     5 
11099 11098 11100     5 
11099 11098 11101     5 
11100 11098 11101     5 
11098 11101 11102     5 
11098 11101 11103     5 
11098 11101 11104     5 
11102 11101 11103     5 
11102 11101 11104     5 
11103 11101 11104     5 
11101 11104 11105     5 
11101 11104 11106     5 
11101 11104 11107     5 
11105 11104 11106     5 
11105 11104 11107     5 
11106 11104 11107     5 
11104 11107 11108     5 
11104 11107 11109     5 
11104 11107 11110     5 
11108 11107 11109     5 
11108 11107 11110     5 
11109 11107 11110     5 
11107 11110 11111     5 
11107 11110 11112     5 
11107 11110 11113     5 
11111 11110 11112     5 
11111 11110 11113     5 
11112 11110 11113     5 
11110 11113 11114     5 
11110 11113 11115     5 
11110 11113 11116     5 
11114 11113 11115     5 
11114 11113 11116     5 
11115 11113 11116     5 
11113 11116 11117     5 
11113 11116 11118     5 
11113 11116 11119     5 
11117 11116 11118     5 
11117 11116 11119     5 
11118 11116 11119     5 
11116 11119 11120     5 
11116 11119 11121     5 
11116 11119 11122     5 
11120 11119 11121     5 
11120 11119 11122     5 
11121 11119 11122     5 
11124 11123 11127     5 
11124 11123 11131     5 
11124 11123 11135     5 
11127 11123 11131     5 
11127 11123 11135     5 
11131 11123 11135     5 
11123 11124 11125     5 
11123 11124 11126     5 
11123 11124 11139     5 
11125 11124 11126     5 
11125 11124 11139     5 
11126 11124 11139     5 
11123 11127 11128     5 
11123 11127 11129     5 
11123 11127 11130     5 
11128 11127 11129     5 
11128 11127 11130     5 
11129 11127 11130     5 
11123 11131 11132     5 
11123 11131 11133     5 
11123 11131 11134     5 
11132 11131 11133     5 
11132 11131 11134     5 
11133 11131 11134     5 
11123 11135 11136     5 
11123 11135 11137     5 
11123 11135 11138     5 
11136 11135 11137     5 
11136 11135 11138     5 
11137 11135 11138     5 
11124 11139 11140     5 
11124 11139 11141     5 
11124 11139 11145     5 
11140 11139 11141     5 
11140 11139 11145     5 
11141 11139 11145     5 
11143 11142 11144     5 
11143 11142 11145     5 
11143 11142 11146     5 
11144 11142 11145     5 
11144 11142 11146     5 
11145 11142 11146     5 
11139 11145 11142     5 
11142 11146 11147     5 
11146 11147 11148     5 
11146 11147 11149     5 
11146 11147 11150     5 
11148 11147 11149     5 
11148 11147 11150     5 
11149 11147 11150     5 
11147 11150 11151     5 
11147 11150 11152     5 
11147 11150 11158     5 
11151 11150 11152     5 
11151 11150 11158     5 
11152 11150 11158     5 
11150 11152 11153     5 
11152 11153 11154     5 
11152 11153 11155     5 
11154 11153 11155     5 
11153 11155 11156     5 
11153 11155 11157     5 
11153 11155 11167     5 
11156 11155 11157     5 
11156 11155 11167     5 
11157 11155 11167     5 
11150 11158 11159     5 
11150 11158 11160     5 
11150 11158 11161     5 
11159 11158 11160     5 
11159 11158 11161     5 
11160 11158 11161     5 
11158 11161 11162     5 
11161 11162 11163     5 
11161 11162 11164     5 
11163 11162 11164     5 
11162 11164 11165     5 
11162 11164 11166     5 
11162 11164 11214     5 
11165 11164 11166     5 
11165 11164 11214     5 
11166 11164 11214     5 
11155 11167 11168     5 
11155 11167 11169     5 
11155 11167 11170     5 
11168 11167 11169     5 
11168 11167 11170     5 
11169 11167 11170     5 
11167 11170 11171     5 
11167 11170 11172     5 
11167 11170 11173     5 
11171 11170 11172     5 
11171 11170 11173     5 
11172 11170 11173     5 
11170 11173 11174     5 
11170 11173 11175     5 
11170 11173 11176     5 
11174 11173 11175     5 
11174 11173 11176     5 
11175 11173 11176     5 
11173 11176 11177     5 
11173 11176 11178     5 
11173 11176 11179     5 
11177 11176 11178     5 
11177 11176 11179     5 
11178 11176 11179     5 
11176 11179 11180     5 
11176 11179 11181     5 
11176 11179 11182     5 
11180 11179 11181     5 
11180 11179 11182     5 
11181 11179 11182     5 
11179 11182 11183     5 
11179 11182 11184     5 
11179 11182 11185     5 
11183 11182 11184     5 
11183 11182 11185     5 
11184 11182 11185     5 
11182 11185 11186     5 
11182 11185 11187     5 
11186 11185 11187     5 
11185 11187 11188     5 
11185 11187 11189     5 
11188 11187 11189     5 
11187 11189 11190     5 
11187 11189 11191     5 
11187 11189 11192     5 
11190 11189 11191     5 
11190 11189 11192     5 
11191 11189 11192     5 
11189 11192 11193     5 
11189 11192 11194     5 
11189 11192 11195     5 
11193 11192 11194     5 
11193 11192 11195     5 
11194 11192 11195     5 
11192 11195 11196     5 
11192 11195 11197     5 
11192 11195 11198     5 
11196 11195 11197     5 
11196 11195 11198     5 
11197 11195 11198     5 
11195 11198 11199     5 
11195 11198 11200     5 
11195 11198 11201     5 
11199 11198 11200     5 
11199 11198 11201     5 
11200 11198 11201     5 
11198 11201 11202     5 
11198 11201 11203     5 
11198 11201 11204     5 
11202 11201 11203     5 
11202 11201 11204     5 
11203 11201 11204     5 
11201 11204 11205     5 
11201 11204 11206     5 
11201 11204 11207     5 
11205 11204 11206     5 
11205 11204 11207     5 
11206 11204 11207     5 
11204 11207 11208     5 
11204 11207 11209     5 
11204 11207 11210     5 
11208 11207 11209     5 
11208 11207 11210     5 
11209 11207 11210     5 
11207 11210 11211     5 
11207 11210 11212     5 
11207 11210 11213     5 
11211 11210 11212     5 
11211 11210 11213     5 
11212 11210 11213     5 
11164 11214 11215     5 
11164 11214 11216     5 
11164 11214 11217     5 
11215 11214 11216     5 
11215 11214 11217     5 
11216 11214 11217     5 
11214 11217 11218     5 
11214 11217 11219     5 
11214 11217 11220     5 
11218 11217 11219     5 
11218 11217 11220     5 
11219 11217 11220     5 
11217 11220 11221     5 
11217 11220 11222     5 
11217 11220 11223     5 
11221 11220 11222     5 
11221 11220 11223     5 
11222 11220 11223     5 
11220 11223 11224     5 
11220 11223 11225     5 
11220 11223 11226     5 
11224 11223 11225     5 
11224 11223 11226     5 
11225 11223 11226     5 
11223 11226 11227     5 
11223 11226 11228     5 
11223 11226 11229     5 
11227 11226 11228     5 
11227 11226 11229     5 
11228 11226 11229     5 
11226 11229 11230     5 
11226 11229 11231     5 
11226 11229 11232     5 
11230 11229 11231     5 
11230 11229 11232     5 
11231 11229 11232     5 
11229 11232 11233     5 
11229 11232 11234     5 
11229 11232 11235     5 
11233 11232 11234     5 
11233 11232 11235     5 
11234 11232 11235     5 
11232 11235 11236     5 
11232 11235 11237     5 
11232 11235 11238     5 
11236 11235 11237     5 
11236 11235 11238     5 
11237 11235 11238     5 
11235 11238 11239     5 
11235 11238 11240     5 
11235 11238 11241     5 
11239 11238 11240     5 
11239 11238 11241     5 
11240 11238 11241     5 
11238 11241 11242     5 
11238 11241 11243     5 
11238 11241 11244     5 
11242 11241 11243     5 
11242 11241 11244     5 
11243 11241 11244     5 
11241 11244 11245     5 
11241 11244 11246     5 
11241 11244 11247     5 
11245 11244 11246     5 
11245 11244 11247     5 
11246 11244 11247     5 
11244 11247 11248     5 
11244 11247 11249     5 
11244 11247 11250     5 
11248 11247 11249     5 
11248 11247 11250     5 
11249 11247 11250     5 
11247 11250 11251     5 
11247 11250 11252     5 
11247 11250 11253     5 
11251 11250 11252     5 
11251 11250 11253     5 
11252 11250 11253     5 
11250 11253 11254     5 
11250 11253 11255     5 
11250 11253 11256     5 
11254 11253 11255     5 
11254 11253 11256     5 
11255 11253 11256     5 
11258 11257 11261     5 
11258 11257 11265     5 
11258 11257 11269     5 
11261 11257 11265     5 
11261 11257 11269     5 
11265 11257 11269     5 
11257 11258 11259     5 
11257 11258 11260     5 
11257 11258 11273     5 
11259 11258 11260     5 
11259 11258 11273     5 
11260 11258 11273     5 
11257 11261 11262     5 
11257 11261 11263     5 
11257 11261 11264     5 
11262 11261 11263     5 
11262 11261 11264     5 
11263 11261 11264     5 
11257 11265 11266     5 
11257 11265 11267     5 
11257 11265 11268     5 
11266 11265 11267     5 
11266 11265 11268     5 
11267 11265 11268     5 
11257 11269 11270     5 
11257 11269 11271     5 
11257 11269 11272     5 
11270 11269 11271     5 
11270 11269 11272     5 
11271 11269 11272     5 
11258 11273 11274     5 
11258 11273 11275     5 
11258 11273 11279     5 
11274 11273 11275     5 
11274 11273 11279     5 
11275 11273 11279     5 
11277 11276 11278     5 
11277 11276 11279     5 
11277 11276 11280     5 
11278 11276 11279     5 
11278 11276 11280     5 
11279 11276 11280     5 
11273 11279 11276     5 
11276 11280 11281     5 
11280 11281 11282     5 
11280 11281 11283     5 
11280 11281 11284     5 
11282 11281 11283     5 
11282 11281 11284     5 
11283 11281 11284     5 
11281 11284 11285     5 
11281 11284 11286     5 
11281 11284 11292     5 
11285 11284 11286     5 
11285 11284 11292     5 
11286 11284 11292     5 
11284 11286 11287     5 
11286 11287 11288     5 
11286 11287 11289     5 
11288 11287 11289     5 
11287 11289 11290     5 
11287 11289 11291     5 
11287 11289 11301     5 
11290 11289 11291     5 
11290 11289 11301     5 
11291 11289 11301     5 
11284 11292 11293     5 
11284 11292 11294     5 
11284 11292 11295     5 
11293 11292 11294     5 
11293 11292 11295     5 
11294 11292 11295     5 
11292 11295 11296     5 
11295 11296 11297     5 
11295 11296 11298     5 
11297 11296 11298     5 
11296 11298 11299     5 
11296 11298 11300     5 
11296 11298 11348     5 
11299 11298 11300     5 
11299 11298 11348     5 
11300 11298 11348     5 
11289 11301 11302     5 
11289 11301 11303     5 
11289 11301 11304     5 
11302 11301 11303     5 
11302 11301 11304     5 
11303 11301 11304     5 
11301 11304 11305     5 
11301 11304 11306     5 
11301 11304 11307     5 
11305 11304 11306     5 
11305 11304 11307     5 
11306 11304 11307     5 
11304 11307 11308     5 
11304 11307 11309     5 
11304 11307 11310     5 
11308 11307 11309     5 
11308 11307 11310     5 
11309 11307 11310     5 
11307 11310 11311     5 
11307 11310 11312     5 
11307 11310 11313     5 
11311 11310 11312     5 
11311 11310 11313     5 
11312 11310 11313     5 
11310 11313 11314     5 
11310 11313 11315     5 
11310 11313 11316     5 
11314 11313 11315     5 
11314 11313 11316     5 
11315 11313 11316     5 
11313 11316 11317     5 
11313 11316 11318     5 
11313 11316 11319     5 
11317 11316 11318     5 
11317 11316 11319     5 
11318 11316 11319     5 
11316 11319 11320     5 
11316 11319 11321     5 
11320 11319 11321     5 
11319 11321 11322     5 
11319 11321 11323     5 
11322 11321 11323     5 
11321 11323 11324     5 
11321 11323 11325     5 
11321 11323 11326     5 
11324 11323 11325     5 
11324 11323 11326     5 
11325 11323 11326     5 
11323 11326 11327     5 
11323 11326 11328     5 
11323 11326 11329     5 
11327 11326 11328     5 
11327 11326 11329     5 
11328 11326 11329     5 
11326 11329 11330     5 
11326 11329 11331     5 
11326 11329 11332     5 
11330 11329 11331     5 
11330 11329 11332     5 
11331 11329 11332     5 
11329 11332 11333     5 
11329 11332 11334     5 
11329 11332 11335     5 
11333 11332 11334     5 
11333 11332 11335     5 
11334 11332 11335     5 
11332 11335 11336     5 
11332 11335 11337     5 
11332 11335 11338     5 
11336 11335 11337     5 
11336 11335 11338     5 
11337 11335 11338     5 
11335 11338 11339     5 
11335 11338 11340     5 
11335 11338 11341     5 
11339 11338 11340     5 
11339 11338 11341     5 
11340 11338 11341     5 
11338 11341 11342     5 
11338 11341 11343     5 
11338 11341 11344     5 
11342 11341 11343     5 
11342 11341 11344     5 
11343 11341 11344     5 
11341 11344 11345     5 
11341 11344 11346     5 
11341 11344 11347     5 
11345 11344 11346     5 
11345 11344 11347     5 
11346 11344 11347     5 
11298 11348 11349     5 
11298 11348 11350     5 
11298 11348 11351     5 
11349 11348 11350     5 
11349 11348 11351     5 
11350 11348 11351     5 
11348 11351 11352     5 
11348 11351 11353     5 
11348 11351 11354     5 
11352 11351 11353     5 
11352 11351 11354     5 
11353 11351 11354     5 
11351 11354 11355     5 
11351 11354 11356     5 
11351 11354 11357     5 
11355 11354 11356     5 
11355 11354 11357     5 
11356 11354 11357     5 
11354 11357 11358     5 
11354 11357 11359     5 
11354 11357 11360     5 
11358 11357 11359     5 
11358 11357 11360     5 
11359 11357 11360     5 
11357 11360 11361     5 
11357 11360 11362     5 
11357 11360 11363     5 
11361 11360 11362     5 
11361 11360 11363     5 
11362 11360 11363     5 
11360 11363 11364     5 
11360 11363 11365     5 
11360 11363 11366     5 
11364 11363 11365     5 
11364 11363 11366     5 
11365 11363 11366     5 
11363 11366 11367     5 
11363 11366 11368     5 
11363 11366 11369     5 
11367 11366 11368     5 
11367 11366 11369     5 
11368 11366 11369     5 
11366 11369 11370     5 
11366 11369 11371     5 
11366 11369 11372     5 
11370 11369 11371     5 
11370 11369 11372     5 
11371 11369 11372     5 
11369 11372 11373     5 
11369 11372 11374     5 
11369 11372 11375     5 
11373 11372 11374     5 
11373 11372 11375     5 
11374 11372 11375     5 
11372 11375 11376     5 
11372 11375 11377     5 
11372 11375 11378     5 
11376 11375 11377     5 
11376 11375 11378     5 
11377 11375 11378     5 
11375 11378 11379     5 
11375 11378 11380     5 
11375 11378 11381     5 
11379 11378 11380     5 
11379 11378 11381     5 
11380 11378 11381     5 
11378 11381 11382     5 
11378 11381 11383     5 
11378 11381 11384     5 
11382 11381 11383     5 
11382 11381 11384     5 
11383 11381 11384     5 
11381 11384 11385     5 
11381 11384 11386     5 
11381 11384 11387     5 
11385 11384 11386     5 
11385 11384 11387     5 
11386 11384 11387     5 
11384 11387 11388     5 
11384 11387 11389     5 
11384 11387 11390     5 
11388 11387 11389     5 
11388 11387 11390     5 
11389 11387 11390     5 
11392 11391 11395     5 
11392 11391 11399     5 
11392 11391 11403     5 
11395 11391 11399     5 
11395 11391 11403     5 
11399 11391 11403     5 
11391 11392 11393     5 
11391 11392 11394     5 
11391 11392 11407     5 
11393 11392 11394     5 
11393 11392 11407     5 
11394 11392 11407     5 
11391 11395 11396     5 
11391 11395 11397     5 
11391 11395 11398     5 
11396 11395 11397     5 
11396 11395 11398     5 
11397 11395 11398     5 
11391 11399 11400     5 
11391 11399 11401     5 
11391 11399 11402     5 
11400 11399 11401     5 
11400 11399 11402     5 
11401 11399 11402     5 
11391 11403 11404     5 
11391 11403 11405     5 
11391 11403 11406     5 
11404 11403 11405     5 
11404 11403 11406     5 
11405 11403 11406     5 
11392 11407 11408     5 
11392 11407 11409     5 
11392 11407 11413     5 
11408 11407 11409     5 
11408 11407 11413     5 
11409 11407 11413     5 
11411 11410 11412     5 
11411 11410 11413     5 
11411 11410 11414     5 
11412 11410 11413     5 
11412 11410 11414     5 
11413 11410 11414     5 
11407 11413 11410     5 
11410 11414 11415     5 
11414 11415 11416     5 
11414 11415 11417     5 
11414 11415 11418     5 
11416 11415 11417     5 
11416 11415 11418     5 
11417 11415 11418     5 
11415 11418 11419     5 
11415 11418 11420     5 
11415 11418 11426     5 
11419 11418 11420     5 
11419 11418 11426     5 
11420 11418 11426     5 
11418 11420 11421     5 
11420 11421 11422     5 
11420 11421 11423     5 
11422 11421 11423     5 
11421 11423 11424     5 
11421 11423 11425     5 
11421 11423 11435     5 
11424 11423 11425     5 
11424 11423 11435     5 
11425 11423 11435     5 
11418 11426 11427     5 
11418 11426 11428     5 
11418 11426 11429     5 
11427 11426 11428     5 
11427 11426 11429     5 
11428 11426 11429     5 
11426 11429 11430     5 
11429 11430 11431     5 
11429 11430 11432     5 
11431 11430 11432     5 
11430 11432 11433     5 
11430 11432 11434     5 
11430 11432 11482     5 
11433 11432 11434     5 
11433 11432 11482     5 
11434 11432 11482     5 
11423 11435 11436     5 
11423 11435 11437     5 
11423 11435 11438     5 
11436 11435 11437     5 
11436 11435 11438     5 
11437 11435 11438     5 
11435 11438 11439     5 
11435 11438 11440     5 
11435 11438 11441     5 
11439 11438 11440     5 
11439 11438 11441     5 
11440 11438 11441     5 
11438 11441 11442     5 
11438 11441 11443     5 
11438 11441 11444     5 
11442 11441 11443     5 
11442 11441 11444     5 
11443 11441 11444     5 
11441 11444 11445     5 
11441 11444 11446     5 
11441 11444 11447     5 
11445 11444 11446     5 
11445 11444 11447     5 
11446 11444 11447     5 
11444 11447 11448     5 
11444 11447 11449     5 
11444 11447 11450     5 
11448 11447 11449     5 
11448 11447 11450     5 
11449 11447 11450     5 
11447 11450 11451     5 
11447 11450 11452     5 
11447 11450 11453     5 
11451 11450 11452     5 
11451 11450 11453     5 
11452 11450 11453     5 
11450 11453 11454     5 
11450 11453 11455     5 
11454 11453 11455     5 
11453 11455 11456     5 
11453 11455 11457     5 
11456 11455 11457     5 
11455 11457 11458     5 
11455 11457 11459     5 
11455 11457 11460     5 
11458 11457 11459     5 
11458 11457 11460     5 
11459 11457 11460     5 
11457 11460 11461     5 
11457 11460 11462     5 
11457 11460 11463     5 
11461 11460 11462     5 
11461 11460 11463     5 
11462 11460 11463     5 
11460 11463 11464     5 
11460 11463 11465     5 
11460 11463 11466     5 
11464 11463 11465     5 
11464 11463 11466     5 
11465 11463 11466     5 
11463 11466 11467     5 
11463 11466 11468     5 
11463 11466 11469     5 
11467 11466 11468     5 
11467 11466 11469     5 
11468 11466 11469     5 
11466 11469 11470     5 
11466 11469 11471     5 
11466 11469 11472     5 
11470 11469 11471     5 
11470 11469 11472     5 
11471 11469 11472     5 
11469 11472 11473     5 
11469 11472 11474     5 
11469 11472 11475     5 
11473 11472 11474     5 
11473 11472 11475     5 
11474 11472 11475     5 
11472 11475 11476     5 
11472 11475 11477     5 
11472 11475 11478     5 
11476 11475 11477     5 
11476 11475 11478     5 
11477 11475 11478     5 
11475 11478 11479     5 
11475 11478 11480     5 
11475 11478 11481     5 
11479 11478 11480     5 
11479 11478 11481     5 
11480 11478 11481     5 
11432 11482 11483     5 
11432 11482 11484     5 
11432 11482 11485     5 
11483 11482 11484     5 
11483 11482 11485     5 
11484 11482 11485     5 
11482 11485 11486     5 
11482 11485 11487     5 
11482 11485 11488     5 
11486 11485 11487     5 
11486 11485 11488     5 
11487 11485 11488     5 
11485 11488 11489     5 
11485 11488 11490     5 
11485 11488 11491     5 
11489 11488 11490     5 
11489 11488 11491     5 
11490 11488 11491     5 
11488 11491 11492     5 
11488 11491 11493     5 
11488 11491 11494     5 
11492 11491 11493     5 
11492 11491 11494     5 
11493 11491 11494     5 
11491 11494 11495     5 
11491 11494 11496     5 
11491 11494 11497     5 
11495 11494 11496     5 
11495 11494 11497     5 
11496 11494 11497     5 
11494 11497 11498     5 
11494 11497 11499     5 
11494 11497 11500     5 
11498 11497 11499     5 
11498 11497 11500     5 
11499 11497 11500     5 
11497 11500 11501     5 
11497 11500 11502     5 
11497 11500 11503     5 
11501 11500 11502     5 
11501 11500 11503     5 
11502 11500 11503     5 
11500 11503 11504     5 
11500 11503 11505     5 
11500 11503 11506     5 
11504 11503 11505     5 
11504 11503 11506     5 
11505 11503 11506     5 
11503 11506 11507     5 
11503 11506 11508     5 
11503 11506 11509     5 
11507 11506 11508     5 
11507 11506 11509     5 
11508 11506 11509     5 
11506 11509 11510     5 
11506 11509 11511     5 
11506 11509 11512     5 
11510 11509 11511     5 
11510 11509 11512     5 
11511 11509 11512     5 
11509 11512 11513     5 
11509 11512 11514     5 
11509 11512 11515     5 
11513 11512 11514     5 
11513 11512 11515     5 
11514 11512 11515     5 
11512 11515 11516     5 
11512 11515 11517     5 
11512 11515 11518     5 
11516 11515 11517     5 
11516 11515 11518     5 
11517 11515 11518     5 
11515 11518 11519     5 
11515 11518 11520     5 
11515 11518 11521     5 
11519 11518 11520     5 
11519 11518 11521     5 
11520 11518 11521     5 
11518 11521 11522     5 
11518 11521 11523     5 
11518 11521 11524     5 
11522 11521 11523     5 
11522 11521 11524     5 
11523 11521 11524     5 
11526 11525 11529     5 
11526 11525 11533     5 
11526 11525 11537     5 
11529 11525 11533     5 
11529 11525 11537     5 
11533 11525 11537     5 
11525 11526 11527     5 
11525 11526 11528     5 
11525 11526 11541     5 
11527 11526 11528     5 
11527 11526 11541     5 
11528 11526 11541     5 
11525 11529 11530     5 
11525 11529 11531     5 
11525 11529 11532     5 
11530 11529 11531     5 
11530 11529 11532     5 
11531 11529 11532     5 
11525 11533 11534     5 
11525 11533 11535     5 
11525 11533 11536     5 
11534 11533 11535     5 
11534 11533 11536     5 
11535 11533 11536     5 
11525 11537 11538     5 
11525 11537 11539     5 
11525 11537 11540     5 
11538 11537 11539     5 
11538 11537 11540     5 
11539 11537 11540     5 
11526 11541 11542     5 
11526 11541 11543     5 
11526 11541 11547     5 
11542 11541 11543     5 
11542 11541 11547     5 
11543 11541 11547     5 
11545 11544 11546     5 
11545 11544 11547     5 
11545 11544 11548     5 
11546 11544 11547     5 
11546 11544 11548     5 
11547 11544 11548     5 
11541 11547 11544     5 
11544 11548 11549     5 
11548 11549 11550     5 
11548 11549 11551     5 
11548 11549 11552     5 
11550 11549 11551     5 
11550 11549 11552     5 
11551 11549 11552     5 
11549 11552 11553     5 
11549 11552 11554     5 
11549 11552 11560     5 
11553 11552 11554     5 
11553 11552 11560     5 
11554 11552 11560     5 
11552 11554 11555     5 
11554 11555 11556     5 
11554 11555 11557     5 
11556 11555 11557     5 
11555 11557 11558     5 
11555 11557 11559     5 
11555 11557 11569     5 
11558 11557 11559     5 
11558 11557 11569     5 
11559 11557 11569     5 
11552 11560 11561     5 
11552 11560 11562     5 
11552 11560 11563     5 
11561 11560 11562     5 
11561 11560 11563     5 
11562 11560 11563     5 
11560 11563 11564     5 
11563 11564 11565     5 
11563 11564 11566     5 
11565 11564 11566     5 
11564 11566 11567     5 
11564 11566 11568     5 
11564 11566 11616     5 
11567 11566 11568     5 
11567 11566 11616     5 
11568 11566 11616     5 
11557 11569 11570     5 
11557 11569 11571     5 
11557 11569 11572     5 
11570 11569 11571     5 
11570 11569 11572     5 
11571 11569 11572     5 
11569 11572 11573     5 
11569 11572 11574     5 
11569 11572 11575     5 
11573 11572 11574     5 
11573 11572 11575     5 
11574 11572 11575     5 
11572 11575 11576     5 
11572 11575 11577     5 
11572 11575 11578     5 
11576 11575 11577     5 
11576 11575 11578     5 
11577 11575 11578     5 
11575 11578 11579     5 
11575 11578 11580     5 
11575 11578 11581     5 
11579 11578 11580     5 
11579 11578 11581     5 
11580 11578 11581     5 
11578 11581 11582     5 
11578 11581 11583     5 
11578 11581 11584     5 
11582 11581 11583     5 
11582 11581 11584     5 
11583 11581 11584     5 
11581 11584 11585     5 
11581 11584 11586     5 
11581 11584 11587     5 
11585 11584 11586     5 
11585 11584 11587     5 
11586 11584 11587     5 
11584 11587 11588     5 
11584 11587 11589     5 
11588 11587 11589     5 
11587 11589 11590     5 
11587 11589 11591     5 
11590 11589 11591     5 
11589 11591 11592     5 
11589 11591 11593     5 
11589 11591 11594     5 
11592 11591 11593     5 
11592 11591 11594     5 
11593 11591 11594     5 
11591 11594 11595     5 
11591 11594 11596     5 
11591 11594 11597     5 
11595 11594 11596     5 
11595 11594 11597     5 
11596 11594 11597     5 
11594 11597 11598     5 
11594 11597 11599     5 
11594 11597 11600     5 
11598 11597 11599     5 
11598 11597 11600     5 
11599 11597 11600     5 
11597 11600 11601     5 
11597 11600 11602     5 
11597 11600 11603     5 
11601 11600 11602     5 
11601 11600 11603     5 
11602 11600 11603     5 
11600 11603 11604     5 
11600 11603 11605     5 
11600 11603 11606     5 
11604 11603 11605     5 
11604 11603 11606     5 
11605 11603 11606     5 
11603 11606 11607     5 
11603 11606 11608     5 
11603 11606 11609     5 
11607 11606 11608     5 
11607 11606 11609     5 
11608 11606 11609     5 
11606 11609 11610     5 
11606 11609 11611     5 
11606 11609 11612     5 
11610 11609 11611     5 
11610 11609 11612     5 
11611 11609 11612     5 
11609 11612 11613     5 
11609 11612 11614     5 
11609 11612 11615     5 
11613 11612 11614     5 
11613 11612 11615     5 
11614 11612 11615     5 
11566 11616 11617     5 
11566 11616 11618     5 
11566 11616 11619     5 
11617 11616 11618     5 
11617 11616 11619     5 
11618 11616 11619     5 
11616 11619 11620     5 
11616 11619 11621     5 
11616 11619 11622     5 
11620 11619 11621     5 
11620 11619 11622     5 
11621 11619 11622     5 
11619 11622 11623     5 
11619 11622 11624     5 
11619 11622 11625     5 
11623 11622 11624     5 
11623 11622 11625     5 
11624 11622 11625     5 
11622 11625 11626     5 
11622 11625 11627     5 
11622 11625 11628     5 
11626 11625 11627     5 
11626 11625 11628     5 
11627 11625 11628     5 
11625 11628 11629     5 
11625 11628 11630     5 
11625 11628 11631     5 
11629 11628 11630     5 
11629 11628 11631     5 
11630 11628 11631     5 
11628 11631 11632     5 
11628 11631 11633     5 
11628 11631 11634     5 
11632 11631 11633     5 
11632 11631 11634     5 
11633 11631 11634     5 
11631 11634 11635     5 
11631 11634 11636     5 
11631 11634 11637     5 
11635 11634 11636     5 
11635 11634 11637     5 
11636 11634 11637     5 
11634 11637 11638     5 
11634 11637 11639     5 
11634 11637 11640     5 
11638 11637 11639     5 
11638 11637 11640     5 
11639 11637 11640     5 
11637 11640 11641     5 
11637 11640 11642     5 
11637 11640 11643     5 
11641 11640 11642     5 
11641 11640 11643     5 
11642 11640 11643     5 
11640 11643 11644     5 
11640 11643 11645     5 
11640 11643 11646     5 
11644 11643 11645     5 
11644 11643 11646     5 
11645 11643 11646     5 
11643 11646 11647     5 
11643 11646 11648     5 
11643 11646 11649     5 
11647 11646 11648     5 
11647 11646 11649     5 
11648 11646 11649     5 
11646 11649 11650     5 
11646 11649 11651     5 
11646 11649 11652     5 
11650 11649 11651     5 
11650 11649 11652     5 
11651 11649 11652     5 
11649 11652 11653     5 
11649 11652 11654     5 
11649 11652 11655     5 
11653 11652 11654     5 
11653 11652 11655     5 
11654 11652 11655     5 
11652 11655 11656     5 
11652 11655 11657     5 
11652 11655 11658     5 
11656 11655 11657     5 
11656 11655 11658     5 
11657 11655 11658     5 
11660 11659 11663     5 
11660 11659 11667     5 
11660 11659 11671     5 
11663 11659 11667     5 
11663 11659 11671     5 
11667 11659 11671     5 
11659 11660 11661     5 
11659 11660 11662     5 
11659 11660 11675     5 
11661 11660 11662     5 
11661 11660 11675     5 
11662 11660 11675     5 
11659 11663 11664     5 
11659 11663 11665     5 
11659 11663 11666     5 
11664 11663 11665     5 
11664 11663 11666     5 
11665 11663 11666     5 
11659 11667 11668     5 
11659 11667 11669     5 
11659 11667 11670     5 
11668 11667 11669     5 
11668 11667 11670     5 
11669 11667 11670     5 
11659 11671 11672     5 
11659 11671 11673     5 
11659 11671 11674     5 
11672 11671 11673     5 
11672 11671 11674     5 
11673 11671 11674     5 
11660 11675 11676     5 
11660 11675 11677     5 
11660 11675 11681     5 
11676 11675 11677     5 
11676 11675 11681     5 
11677 11675 11681     5 
11679 11678 11680     5 
11679 11678 11681     5 
11679 11678 11682     5 
11680 11678 11681     5 
11680 11678 11682     5 
11681 11678 11682     5 
11675 11681 11678     5 
11678 11682 11683     5 
11682 11683 11684     5 
11682 11683 11685     5 
11682 11683 11686     5 
11684 11683 11685     5 
11684 11683 11686     5 
11685 11683 11686     5 
11683 11686 11687     5 
11683 11686 11688     5 
11683 11686 11694     5 
11687 11686 11688     5 
11687 11686 11694     5 
11688 11686 11694     5 
11686 11688 11689     5 
11688 11689 11690     5 
11688 11689 11691     5 
11690 11689 11691     5 
11689 11691 11692     5 
11689 11691 11693     5 
11689 11691 11703     5 
11692 11691 11693     5 
11692 11691 11703     5 
11693 11691 11703     5 
11686 11694 11695     5 
11686 11694 11696     5 
11686 11694 11697     5 
11695 11694 11696     5 
11695 11694 11697     5 
11696 11694 11697     5 
11694 11697 11698     5 
11697 11698 11699     5 
11697 11698 11700     5 
11699 11698 11700     5 
11698 11700 11701     5 
11698 11700 11702     5 
11698 11700 11750     5 
11701 11700 11702     5 
11701 11700 11750     5 
11702 11700 11750     5 
11691 11703 11704     5 
11691 11703 11705     5 
11691 11703 11706     5 
11704 11703 11705     5 
11704 11703 11706     5 
11705 11703 11706     5 
11703 11706 11707     5 
11703 11706 11708     5 
11703 11706 11709     5 
11707 11706 11708     5 
11707 11706 11709     5 
11708 11706 11709     5 
11706 11709 11710     5 
11706 11709 11711     5 
11706 11709 11712     5 
11710 11709 11711     5 
11710 11709 11712     5 
11711 11709 11712     5 
11709 11712 11713     5 
11709 11712 11714     5 
11709 11712 11715     5 
11713 11712 11714     5 
11713 11712 11715     5 
11714 11712 11715     5 
11712 11715 11716     5 
11712 11715 11717     5 
11712 11715 11718     5 
11716 11715 11717     5 
11716 11715 11718     5 
11717 11715 11718     5 
11715 11718 11719     5 
11715 11718 11720     5 
11715 11718 11721     5 
11719 11718 11720     5 
11719 11718 11721     5 
11720 11718 11721     5 
11718 11721 11722     5 
11718 11721 11723     5 
11722 11721 11723     5 
11721 11723 11724     5 
11721 11723 11725     5 
11724 11723 11725     5 
11723 11725 11726     5 
11723 11725 11727     5 
11723 11725 11728     5 
11726 11725 11727     5 
11726 11725 11728     5 
11727 11725 11728     5 
11725 11728 11729     5 
11725 11728 11730     5 
11725 11728 11731     5 
11729 11728 11730     5 
11729 11728 11731     5 
11730 11728 11731     5 
11728 11731 11732     5 
11728 11731 11733     5 
11728 11731 11734     5 
11732 11731 11733     5 
11732 11731 11734     5 
11733 11731 11734     5 
11731 11734 11735     5 
11731 11734 11736     5 
11731 11734 11737     5 
11735 11734 11736     5 
11735 11734 11737     5 
11736 11734 11737     5 
11734 11737 11738     5 
11734 11737 11739     5 
11734 11737 11740     5 
11738 11737 11739     5 
11738 11737 11740     5 
11739 11737 11740     5 
11737 11740 11741     5 
11737 11740 11742     5 
11737 11740 11743     5 
11741 11740 11742     5 
11741 11740 11743     5 
11742 11740 11743     5 
11740 11743 11744     5 
11740 11743 11745     5 
11740 11743 11746     5 
11744 11743 11745     5 
11744 11743 11746     5 
11745 11743 11746     5 
11743 11746 11747     5 
11743 11746 11748     5 
11743 11746 11749     5 
11747 11746 11748     5 
11747 11746 11749     5 
11748 11746 11749     5 
11700 11750 11751     5 
11700 11750 11752     5 
11700 11750 11753     5 
11751 11750 11752     5 
11751 11750 11753     5 
11752 11750 11753     5 
11750 11753 11754     5 
11750 11753 11755     5 
11750 11753 11756     5 
11754 11753 11755     5 
11754 11753 11756     5 
11755 11753 11756     5 
11753 11756 11757     5 
11753 11756 11758     5 
11753 11756 11759     5 
11757 11756 11758     5 
11757 11756 11759     5 
11758 11756 11759     5 
11756 11759 11760     5 
11756 11759 11761     5 
11756 11759 11762     5 
11760 11759 11761     5 
11760 11759 11762     5 
11761 11759 11762     5 
11759 11762 11763     5 
11759 11762 11764     5 
11759 11762 11765     5 
11763 11762 11764     5 
11763 11762 11765     5 
11764 11762 11765     5 
11762 11765 11766     5 
11762 11765 11767     5 
11762 11765 11768     5 
11766 11765 11767     5 
11766 11765 11768     5 
11767 11765 11768     5 
11765 11768 11769     5 
11765 11768 11770     5 
11765 11768 11771     5 
11769 11768 11770     5 
11769 11768 11771     5 
11770 11768 11771     5 
11768 11771 11772     5 
11768 11771 11773     5 
11768 11771 11774     5 
11772 11771 11773     5 
11772 11771 11774     5 
11773 11771 11774     5 
11771 11774 11775     5 
11771 11774 11776     5 
11771 11774 11777     5 
11775 11774 11776     5 
11775 11774 11777     5 
11776 11774 11777     5 
11774 11777 11778     5 
11774 11777 11779     5 
11774 11777 11780     5 
11778 11777 11779     5 
11778 11777 11780     5 
11779 11777 11780     5 
11777 11780 11781     5 
11777 11780 11782     5 
11777 11780 11783     5 
11781 11780 11782     5 
11781 11780 11783     5 
11782 11780 11783     5 
11780 11783 11784     5 
11780 11783 11785     5 
11780 11783 11786     5 
11784 11783 11785     5 
11784 11783 11786     5 
11785 11783 11786     5 
11783 11786 11787     5 
11783 11786 11788     5 
11783 11786 11789     5 
11787 11786 11788     5 
11787 11786 11789     5 
11788 11786 11789     5 
11786 11789 11790     5 
11786 11789 11791     5 
11786 11789 11792     5 
11790 11789 11791     5 
11790 11789 11792     5 
11791 11789 11792     5 
11794 11793 11797     5 
11794 11793 11801     5 
11794 11793 11805     5 
11797 11793 11801     5 
11797 11793 11805     5 
11801 11793 11805     5 
11793 11794 11795     5 
11793 11794 11796     5 
11793 11794 11809     5 
11795 11794 11796     5 
11795 11794 11809     5 
11796 11794 11809     5 
11793 11797 11798     5 
11793 11797 11799     5 
11793 11797 11800     5 
11798 11797 11799     5 
11798 11797 11800     5 
11799 11797 11800     5 
11793 11801 11802     5 
11793 11801 11803     5 
11793 11801 11804     5 
11802 11801 11803     5 
11802 11801 11804     5 
11803 11801 11804     5 
11793 11805 11806     5 
11793 11805 11807     5 
11793 11805 11808     5 
11806 11805 11807     5 
11806 11805 11808     5 
11807 11805 11808     5 
11794 11809 11810     5 
11794 11809 11811     5 
11794 11809 11815     5 
11810 11809 11811     5 
11810 11809 11815     5 
11811 11809 11815     5 
11813 11812 11814     5 
11813 11812 11815     5 
11813 11812 11816     5 
11814 11812 11815     5 
11814 11812 11816     5 
11815 11812 11816     5 
11809 11815 11812     5 
11812 11816 11817     5 
11816 11817 11818     5 
11816 11817 11819     5 
11816 11817 11820     5 
11818 11817 11819     5 
11818 11817 11820     5 
11819 11817 11820     5 
11817 11820 11821     5 
11817 11820 11822     5 
11817 11820 11828     5 
11821 11820 11822     5 
11821 11820 11828     5 
11822 11820 11828     5 
11820 11822 11823     5 
11822 11823 11824     5 
11822 11823 11825     5 
11824 11823 11825     5 
11823 11825 11826     5 
11823 11825 11827     5 
11823 11825 11837     5 
11826 11825 11827     5 
11826 11825 11837     5 
11827 11825 11837     5 
11820 11828 11829     5 
11820 11828 11830     5 
11820 11828 11831     5 
11829 11828 11830     5 
11829 11828 11831     5 
11830 11828 11831     5 
11828 11831 11832     5 
11831 11832 11833     5 
11831 11832 11834     5 
11833 11832 11834     5 
11832 11834 11835     5 
11832 11834 11836     5 
11832 11834 11884     5 
11835 11834 11836     5 
11835 11834 11884     5 
11836 11834 11884     5 
11825 11837 11838     5 
11825 11837 11839     5 
11825 11837 11840     5 
11838 11837 11839     5 
11838 11837 11840     5 
11839 11837 11840     5 
11837 11840 11841     5 
11837 11840 11842     5 
11837 11840 11843     5 
11841 11840 11842     5 
11841 11840 11843     5 
11842 11840 11843     5 
11840 11843 11844     5 
11840 11843 11845     5 
11840 11843 11846     5 
11844 11843 11845     5 
11844 11843 11846     5 
11845 11843 11846     5 
11843 11846 11847     5 
11843 11846 11848     5 
11843 11846 11849     5 
11847 11846 11848     5 
11847 11846 11849     5 
11848 11846 11849     5 
11846 11849 11850     5 
11846 11849 11851     5 
11846 11849 11852     5 
11850 11849 11851     5 
11850 11849 11852     5 
11851 11849 11852     5 
11849 11852 11853     5 
11849 11852 11854     5 
11849 11852 11855     5 
11853 11852 11854     5 
11853 11852 11855     5 
11854 11852 11855     5 
11852 11855 11856     5 
11852 11855 11857     5 
11856 11855 11857     5 
11855 11857 11858     5 
11855 11857 11859     5 
11858 11857 11859     5 
11857 11859 11860     5 
11857 11859 11861     5 
11857 11859 11862     5 
11860 11859 11861     5 
11860 11859 11862     5 
11861 11859 11862     5 
11859 11862 11863     5 
11859 11862 11864     5 
11859 11862 11865     5 
11863 11862 11864     5 
11863 11862 11865     5 
11864 11862 11865     5 
11862 11865 11866     5 
11862 11865 11867     5 
11862 11865 11868     5 
11866 11865 11867     5 
11866 11865 11868     5 
11867 11865 11868     5 
11865 11868 11869     5 
11865 11868 11870     5 
11865 11868 11871     5 
11869 11868 11870     5 
11869 11868 11871     5 
11870 11868 11871     5 
11868 11871 11872     5 
11868 11871 11873     5 
11868 11871 11874     5 
11872 11871 11873     5 
11872 11871 11874     5 
11873 11871 11874     5 
11871 11874 11875     5 
11871 11874 11876     5 
11871 11874 11877     5 
11875 11874 11876     5 
11875 11874 11877     5 
11876 11874 11877     5 
11874 11877 11878     5 
11874 11877 11879     5 
11874 11877 11880     5 
11878 11877 11879     5 
11878 11877 11880     5 
11879 11877 11880     5 
11877 11880 11881     5 
11877 11880 11882     5 
11877 11880 11883     5 
11881 11880 11882     5 
11881 11880 11883     5 
11882 11880 11883     5 
11834 11884 11885     5 
11834 11884 11886     5 
11834 11884 11887     5 
11885 11884 11886     5 
11885 11884 11887     5 
11886 11884 11887     5 
11884 11887 11888     5 
11884 11887 11889     5 
11884 11887 11890     5 
11888 11887 11889     5 
11888 11887 11890     5 
11889 11887 11890     5 
11887 11890 11891     5 
11887 11890 11892     5 
11887 11890 11893     5 
11891 11890 11892     5 
11891 11890 11893     5 
11892 11890 11893     5 
11890 11893 11894     5 
11890 11893 11895     5 
11890 11893 11896     5 
11894 11893 11895     5 
11894 11893 11896     5 
11895 11893 11896     5 
11893 11896 11897     5 
11893 11896 11898     5 
11893 11896 11899     5 
11897 11896 11898     5 
11897 11896 11899     5 
11898 11896 11899     5 
11896 11899 11900     5 
11896 11899 11901     5 
11896 11899 11902     5 
11900 11899 11901     5 
11900 11899 11902     5 
11901 11899 11902     5 
11899 11902 11903     5 
11899 11902 11904     5 
11899 11902 11905     5 
11903 11902 11904     5 
11903 11902 11905     5 
11904 11902 11905     5 
11902 11905 11906     5 
11902 11905 11907     5 
11902 11905 11908     5 
11906 11905 11907     5 
11906 11905 11908     5 
11907 11905 11908     5 
11905 11908 11909     5 
11905 11908 11910     5 
11905 11908 11911     5 
11909 11908 11910     5 
11909 11908 11911     5 
11910 11908 11911     5 
11908 11911 11912     5 
11908 11911 11913     5 
11908 11911 11914     5 
11912 11911 11913     5 
11912 11911 11914     5 
11913 11911 11914     5 
11911 11914 11915     5 
11911 11914 11916     5 
11911 11914 11917     5 
11915 11914 11916     5 
11915 11914 11917     5 
11916 11914 11917     5 
11914 11917 11918     5 
11914 11917 11919     5 
11914 11917 11920     5 
11918 11917 11919     5 
11918 11917 11920     5 
11919 11917 11920     5 
11917 11920 11921     5 
11917 11920 11922     5 
11917 11920 11923     5 
11921 11920 11922     5 
11921 11920 11923     5 
11922 11920 11923     5 
11920 11923 11924     5 
11920 11923 11925     5 
11920 11923 11926     5 
11924 11923 11925     5 
11924 11923 11926     5 
11925 11923 11926     5 
11928 11927 11931     5 
11928 11927 11935     5 
11928 11927 11939     5 
11931 11927 11935     5 
11931 11927 11939     5 
11935 11927 11939     5 
11927 11928 11929     5 
11927 11928 11930     5 
11927 11928 11943     5 
11929 11928 11930     5 
11929 11928 11943     5 
11930 11928 11943     5 
11927 11931 11932     5 
11927 11931 11933     5 
11927 11931 11934     5 
11932 11931 11933     5 
11932 11931 11934     5 
11933 11931 11934     5 
11927 11935 11936     5 
11927 11935 11937     5 
11927 11935 11938     5 
11936 11935 11937     5 
11936 11935 11938     5 
11937 11935 11938     5 
11927 11939 11940     5 
11927 11939 11941     5 
11927 11939 11942     5 
11940 11939 11941     5 
11940 11939 11942     5 
11941 11939 11942     5 
11928 11943 11944     5 
11928 11943 11945     5 
11928 11943 11949     5 
11944 11943 11945     5 
11944 11943 11949     5 
11945 11943 11949     5 
11947 11946 11948     5 
11947 11946 11949     5 
11947 11946 11950     5 
11948 11946 11949     5 
11948 11946 11950     5 
11949 11946 11950     5 
11943 11949 11946     5 
11946 11950 11951     5 
11950 11951 11952     5 
11950 11951 11953     5 
11950 11951 11954     5 
11952 11951 11953     5 
11952 11951 11954     5 
11953 11951 11954     5 
11951 11954 11955     5 
11951 11954 11956     5 
11951 11954 11962     5 
11955 11954 11956     5 
11955 11954 11962     5 
11956 11954 11962     5 
11954 11956 11957     5 
11956 11957 11958     5 
11956 11957 11959     5 
11958 11957 11959     5 
11957 11959 11960     5 
11957 11959 11961     5 
11957 11959 11971     5 
11960 11959 11961     5 
11960 11959 11971     5 
11961 11959 11971     5 
11954 11962 11963     5 
11954 11962 11964     5 
11954 11962 11965     5 
11963 11962 11964     5 
11963 11962 11965     5 
11964 11962 11965     5 
11962 11965 11966     5 
11965 11966 11967     5 
11965 11966 11968     5 
11967 11966 11968     5 
11966 11968 11969     5 
11966 11968 11970     5 
11966 11968 12018     5 
11969 11968 11970     5 
11969 11968 12018     5 
11970 11968 12018     5 
11959 11971 11972     5 
11959 11971 11973     5 
11959 11971 11974     5 
11972 11971 11973     5 
11972 11971 11974     5 
11973 11971 11974     5 
11971 11974 11975     5 
11971 11974 11976     5 
11971 11974 11977     5 
11975 11974 11976     5 
11975 11974 11977     5 
11976 11974 11977     5 
11974 11977 11978     5 
11974 11977 11979     5 
11974 11977 11980     5 
11978 11977 11979     5 
11978 11977 11980     5 
11979 11977 11980     5 
11977 11980 11981     5 
11977 11980 11982     5 
11977 11980 11983     5 
11981 11980 11982     5 
11981 11980 11983     5 
11982 11980 11983     5 
11980 11983 11984     5 
11980 11983 11985     5 
11980 11983 11986     5 
11984 11983 11985     5 
11984 11983 11986     5 
11985 11983 11986     5 
11983 11986 11987     5 
11983 11986 11988     5 
11983 11986 11989     5 
11987 11986 11988     5 
11987 11986 11989     5 
11988 11986 11989     5 
11986 11989 11990     5 
11986 11989 11991     5 
11990 11989 11991     5 
11989 11991 11992     5 
11989 11991 11993     5 
11992 11991 11993     5 
11991 11993 11994     5 
11991 11993 11995     5 
11991 11993 11996     5 
11994 11993 11995     5 
11994 11993 11996     5 
11995 11993 11996     5 
11993 11996 11997     5 
11993 11996 11998     5 
11993 11996 11999     5 
11997 11996 11998     5 
11997 11996 11999     5 
11998 11996 11999     5 
11996 11999 12000     5 
11996 11999 12001     5 
11996 11999 12002     5 
12000 11999 12001     5 
12000 11999 12002     5 
12001 11999 12002     5 
11999 12002 12003     5 
11999 12002 12004     5 
11999 12002 12005     5 
12003 12002 12004     5 
12003 12002 12005     5 
12004 12002 12005     5 
12002 12005 12006     5 
12002 12005 12007     5 
12002 12005 12008     5 
12006 12005 12007     5 
12006 12005 12008     5 
12007 12005 12008     5 
12005 12008 12009     5 
12005 12008 12010     5 
12005 12008 12011     5 
12009 12008 12010     5 
12009 12008 12011     5 
12010 12008 12011     5 
12008 12011 12012     5 
12008 12011 12013     5 
12008 12011 12014     5 
12012 12011 12013     5 
12012 12011 12014     5 
12013 12011 12014     5 
12011 12014 12015     5 
12011 12014 12016     5 
12011 12014 12017     5 
12015 12014 12016     5 
12015 12014 12017     5 
12016 12014 12017     5 
11968 12018 12019     5 
11968 12018 12020     5 
11968 12018 12021     5 
12019 12018 12020     5 
12019 12018 12021     5 
12020 12018 12021     5 
12018 12021 12022     5 
12018 12021 12023     5 
12018 12021 12024     5 
12022 12021 12023     5 
12022 12021 12024     5 
12023 12021 12024     5 
12021 12024 12025     5 
12021 12024 12026     5 
12021 12024 12027     5 
12025 12024 12026     5 
12025 12024 12027     5 
12026 12024 12027     5 
12024 12027 12028     5 
12024 12027 12029     5 
12024 12027 12030     5 
12028 12027 12029     5 
12028 12027 12030     5 
12029 12027 12030     5 
12027 12030 12031     5 
12027 12030 12032     5 
12027 12030 12033     5 
12031 12030 12032     5 
12031 12030 12033     5 
12032 12030 12033     5 
12030 12033 12034     5 
12030 12033 12035     5 
12030 12033 12036     5 
12034 12033 12035     5 
12034 12033 12036     5 
12035 12033 12036     5 
12033 12036 12037     5 
12033 12036 12038     5 
12033 12036 12039     5 
12037 12036 12038     5 
12037 12036 12039     5 
12038 12036 12039     5 
12036 12039 12040     5 
12036 12039 12041     5 
12036 12039 12042     5 
12040 12039 12041     5 
12040 12039 12042     5 
12041 12039 12042     5 
12039 12042 12043     5 
12039 12042 12044     5 
12039 12042 12045     5 
12043 12042 12044     5 
12043 12042 12045     5 
12044 12042 12045     5 
12042 12045 12046     5 
12042 12045 12047     5 
12042 12045 12048     5 
12046 12045 12047     5 
12046 12045 12048     5 
12047 12045 12048     5 
12045 12048 12049     5 
12045 12048 12050     5 
12045 12048 12051     5 
12049 12048 12050     5 
12049 12048 12051     5 
12050 12048 12051     5 
12048 12051 12052     5 
12048 12051 12053     5 
12048 12051 12054     5 
12052 12051 12053     5 
12052 12051 12054     5 
12053 12051 12054     5 
12051 12054 12055     5 
12051 12054 12056     5 
12051 12054 12057     5 
12055 12054 12056     5 
12055 12054 12057     5 
12056 12054 12057     5 
12054 12057 12058     5 
12054 12057 12059     5 
12054 12057 12060     5 
12058 12057 12059     5 
12058 12057 12060     5 
12059 12057 12060     5 
12062 12061 12065     5 
12062 12061 12069     5 
12062 12061 12073     5 
12065 12061 12069     5 
12065 12061 12073     5 
12069 12061 12073     5 
12061 12062 12063     5 
12061 12062 12064     5 
12061 12062 12077     5 
12063 12062 12064     5 
12063 12062 12077     5 
12064 12062 12077     5 
12061 12065 12066     5 
12061 12065 12067     5 
12061 12065 12068     5 
12066 12065 12067     5 
12066 12065 12068     5 
12067 12065 12068     5 
12061 12069 12070     5 
12061 12069 12071     5 
12061 12069 12072     5 
12070 12069 12071     5 
12070 12069 12072     5 
12071 12069 12072     5 
12061 12073 12074     5 
12061 12073 12075     5 
12061 12073 12076     5 
12074 12073 12075     5 
12074 12073 12076     5 
12075 12073 12076     5 
12062 12077 12078     5 
12062 12077 12079     5 
12062 12077 12083     5 
12078 12077 12079     5 
12078 12077 12083     5 
12079 12077 12083     5 
12081 12080 12082     5 
12081 12080 12083     5 
12081 12080 12084     5 
12082 12080 12083     5 
12082 12080 12084     5 
12083 12080 12084     5 
12077 12083 12080     5 
12080 12084 12085     5 
12084 12085 12086     5 
12084 12085 12087     5 
12084 12085 12088     5 
12086 12085 12087     5 
12086 12085 12088     5 
12087 12085 12088     5 
12085 12088 12089     5 
12085 12088 12090     5 
12085 12088 12096     5 
12089 12088 12090     5 
12089 12088 12096     5 
12090 12088 12096     5 
12088 12090 12091     5 
12090 12091 12092     5 
12090 12091 12093     5 
12092 12091 12093     5 
12091 12093 12094     5 
12091 12093 12095     5 
12091 12093 12105     5 
12094 12093 12095     5 
12094 12093 12105     5 
12095 12093 12105     5 
12088 12096 12097     5 
12088 12096 12098     5 
12088 12096 12099     5 
12097 12096 12098     5 
12097 12096 12099     5 
12098 12096 12099     5 
12096 12099 12100     5 
12099 12100 12101     5 
12099 12100 12102     5 
12101 12100 12102     5 
12100 12102 12103     5 
12100 12102 12104     5 
12100 12102 12152     5 
12103 12102 12104     5 
12103 12102 12152     5 
12104 12102 12152     5 
12093 12105 12106     5 
12093 12105 12107     5 
12093 12105 12108     5 
12106 12105 12107     5 
12106 12105 12108     5 
12107 12105 12108     5 
12105 12108 12109     5 
12105 12108 12110     5 
12105 12108 12111     5 
12109 12108 12110     5 
12109 12108 12111     5 
12110 12108 12111     5 
12108 12111 12112     5 
12108 12111 12113     5 
12108 12111 12114     5 
12112 12111 12113     5 
12112 12111 12114     5 
12113 12111 12114     5 
12111 12114 12115     5 
12111 12114 12116     5 
12111 12114 12117     5 
12115 12114 12116     5 
12115 12114 12117     5 
12116 12114 12117     5 
12114 12117 12118     5 
12114 12117 12119     5 
12114 12117 12120     5 
12118 12117 12119     5 
12118 12117 12120     5 
12119 12117 12120     5 
12117 12120 12121     5 
12117 12120 12122     5 
12117 12120 12123     5 
12121 12120 12122     5 
12121 12120 12123     5 
12122 12120 12123     5 
12120 12123 12124     5 
12120 12123 12125     5 
12124 12123 12125     5 
12123 12125 12126     5 
12123 12125 12127     5 
12126 12125 12127     5 
12125 12127 12128     5 
12125 12127 12129     5 
12125 12127 12130     5 
12128 12127 12129     5 
12128 12127 12130     5 
12129 12127 12130     5 
12127 12130 12131     5 
12127 12130 12132     5 
12127 12130 12133     5 
12131 12130 12132     5 
12131 12130 12133     5 
12132 12130 12133     5 
12130 12133 12134     5 
12130 12133 12135     5 
12130 12133 12136     5 
12134 12133 12135     5 
12134 12133 12136     5 
12135 12133 12136     5 
12133 12136 12137     5 
12133 12136 12138     5 
12133 12136 12139     5 
12137 12136 12138     5 
12137 12136 12139     5 
12138 12136 12139     5 
12136 12139 12140     5 
12136 12139 12141     5 
12136 12139 12142     5 
12140 12139 12141     5 
12140 12139 12142     5 
12141 12139 12142     5 
12139 12142 12143     5 
12139 12142 12144     5 
12139 12142 12145     5 
12143 12142 12144     5 
12143 12142 12145     5 
12144 12142 12145     5 
12142 12145 12146     5 
12142 12145 12147     5 
12142 12145 12148     5 
12146 12145 12147     5 
12146 12145 12148     5 
12147 12145 12148     5 
12145 12148 12149     5 
12145 12148 12150     5 
12145 12148 12151     5 
12149 12148 12150     5 
12149 12148 12151     5 
12150 12148 12151     5 
12102 12152 12153     5 
12102 12152 12154     5 
12102 12152 12155     5 
12153 12152 12154     5 
12153 12152 12155     5 
12154 12152 12155     5 
12152 12155 12156     5 
12152 12155 12157     5 
12152 12155 12158     5 
12156 12155 12157     5 
12156 12155 12158     5 
12157 12155 12158     5 
12155 12158 12159     5 
12155 12158 12160     5 
12155 12158 12161     5 
12159 12158 12160     5 
12159 12158 12161     5 
12160 12158 12161     5 
12158 12161 12162     5 
12158 12161 12163     5 
12158 12161 12164     5 
12162 12161 12163     5 
12162 12161 12164     5 
12163 12161 12164     5 
12161 12164 12165     5 
12161 12164 12166     5 
12161 12164 12167     5 
12165 12164 12166     5 
12165 12164 12167     5 
12166 12164 12167     5 
12164 12167 12168     5 
12164 12167 12169     5 
12164 12167 12170     5 
12168 12167 12169     5 
12168 12167 12170     5 
12169 12167 12170     5 
12167 12170 12171     5 
12167 12170 12172     5 
12167 12170 12173     5 
12171 12170 12172     5 
12171 12170 12173     5 
12172 12170 12173     5 
12170 12173 12174     5 
12170 12173 12175     5 
12170 12173 12176     5 
12174 12173 12175     5 
12174 12173 12176     5 
12175 12173 12176     5 
12173 12176 12177     5 
12173 12176 12178     5 
12173 12176 12179     5 
12177 12176 12178     5 
12177 12176 12179     5 
12178 12176 12179     5 
12176 12179 12180     5 
12176 12179 12181     5 
12176 12179 12182     5 
12180 12179 12181     5 
12180 12179 12182     5 
12181 12179 12182     5 
12179 12182 12183     5 
12179 12182 12184     5 
12179 12182 12185     5 
12183 12182 12184     5 
12183 12182 12185     5 
12184 12182 12185     5 
12182 12185 12186     5 
12182 12185 12187     5 
12182 12185 12188     5 
12186 12185 12187     5 
12186 12185 12188     5 
12187 12185 12188     5 
12185 12188 12189     5 
12185 12188 12190     5 
12185 12188 12191     5 
12189 12188 12190     5 
12189 12188 12191     5 
12190 12188 12191     5 
12188 12191 12192     5 
12188 12191 12193     5 
12188 12191 12194     5 
12192 12191 12193     5 
12192 12191 12194     5 
12193 12191 12194     5 
12196 12195 12199     5 
12196 12195 12203     5 
12196 12195 12207     5 
12199 12195 12203     5 
12199 12195 12207     5 
12203 12195 12207     5 
12195 12196 12197     5 
12195 12196 12198     5 
12195 12196 12211     5 
12197 12196 12198     5 
12197 12196 12211     5 
12198 12196 12211     5 
12195 12199 12200     5 
12195 12199 12201     5 
12195 12199 12202     5 
12200 12199 12201     5 
12200 12199 12202     5 
12201 12199 12202     5 
12195 12203 12204     5 
12195 12203 12205     5 
12195 12203 12206     5 
12204 12203 12205     5 
12204 12203 12206     5 
12205 12203 12206     5 
12195 12207 12208     5 
12195 12207 12209     5 
12195 12207 12210     5 
12208 12207 12209     5 
12208 12207 12210     5 
12209 12207 12210     5 
12196 12211 12212     5 
12196 12211 12213     5 
12196 12211 12217     5 
12212 12211 12213     5 
12212 12211 12217     5 
12213 12211 12217     5 
12215 12214 12216     5 
12215 12214 12217     5 
12215 12214 12218     5 
12216 12214 12217     5 
12216 12214 12218     5 
12217 12214 12218     5 
12211 12217 12214     5 
12214 12218 12219     5 
12218 12219 12220     5 
12218 12219 12221     5 
12218 12219 12222     5 
12220 12219 12221     5 
12220 12219 12222     5 
12221 12219 12222     5 
12219 12222 12223     5 
12219 12222 12224     5 
12219 12222 12230     5 
12223 12222 12224     5 
12223 12222 12230     5 
12224 12222 12230     5 
12222 12224 12225     5 
12224 12225 12226     5 
12224 12225 12227     5 
12226 12225 12227     5 
12225 12227 12228     5 
12225 12227 12229     5 
12225 12227 12239     5 
12228 12227 12229     5 
12228 12227 12239     5 
12229 12227 12239     5 
12222 12230 12231     5 
12222 12230 12232     5 
12222 12230 12233     5 
12231 12230 12232     5 
12231 12230 12233     5 
12232 12230 12233     5 
12230 12233 12234     5 
12233 12234 12235     5 
12233 12234 12236     5 
12235 12234 12236     5 
12234 12236 12237     5 
12234 12236 12238     5 
12234 12236 12286     5 
12237 12236 12238     5 
12237 12236 12286     5 
12238 12236 12286     5 
12227 12239 12240     5 
12227 12239 12241     5 
12227 12239 12242     5 
12240 12239 12241     5 
12240 12239 12242     5 
12241 12239 12242     5 
12239 12242 12243     5 
12239 12242 12244     5 
12239 12242 12245     5 
12243 12242 12244     5 
12243 12242 12245     5 
12244 12242 12245     5 
12242 12245 12246     5 
12242 12245 12247     5 
12242 12245 12248     5 
12246 12245 12247     5 
12246 12245 12248     5 
12247 12245 12248     5 
12245 12248 12249     5 
12245 12248 12250     5 
12245 12248 12251     5 
12249 12248 12250     5 
12249 12248 12251     5 
12250 12248 12251     5 
12248 12251 12252     5 
12248 12251 12253     5 
12248 12251 12254     5 
12252 12251 12253     5 
12252 12251 12254     5 
12253 12251 12254     5 
12251 12254 12255     5 
12251 12254 12256     5 
12251 12254 12257     5 
12255 12254 12256     5 
12255 12254 12257     5 
12256 12254 12257     5 
12254 12257 12258     5 
12254 12257 12259     5 
12258 12257 12259     5 
12257 12259 12260     5 
12257 12259 12261     5 
12260 12259 12261     5 
12259 12261 12262     5 
12259 12261 12263     5 
12259 12261 12264     5 
12262 12261 12263     5 
12262 12261 12264     5 
12263 12261 12264     5 
12261 12264 12265     5 
12261 12264 12266     5 
12261 12264 12267     5 
12265 12264 12266     5 
12265 12264 12267     5 
12266 12264 12267     5 
12264 12267 12268     5 
12264 12267 12269     5 
12264 12267 12270     5 
12268 12267 12269     5 
12268 12267 12270     5 
12269 12267 12270     5 
12267 12270 12271     5 
12267 12270 12272     5 
12267 12270 12273     5 
12271 12270 12272     5 
12271 12270 12273     5 
12272 12270 12273     5 
12270 12273 12274     5 
12270 12273 12275     5 
12270 12273 12276     5 
12274 12273 12275     5 
12274 12273 12276     5 
12275 12273 12276     5 
12273 12276 12277     5 
12273 12276 12278     5 
12273 12276 12279     5 
12277 12276 12278     5 
12277 12276 12279     5 
12278 12276 12279     5 
12276 12279 12280     5 
12276 12279 12281     5 
12276 12279 12282     5 
12280 12279 12281     5 
12280 12279 12282     5 
12281 12279 12282     5 
12279 12282 12283     5 
12279 12282 12284     5 
12279 12282 12285     5 
12283 12282 12284     5 
12283 12282 12285     5 
12284 12282 12285     5 
12236 12286 12287     5 
12236 12286 12288     5 
12236 12286 12289     5 
12287 12286 12288     5 
12287 12286 12289     5 
12288 12286 12289     5 
12286 12289 12290     5 
12286 12289 12291     5 
12286 12289 12292     5 
12290 12289 12291     5 
12290 12289 12292     5 
12291 12289 12292     5 
12289 12292 12293     5 
12289 12292 12294     5 
12289 12292 12295     5 
12293 12292 12294     5 
12293 12292 12295     5 
12294 12292 12295     5 
12292 12295 12296     5 
12292 12295 12297     5 
12292 12295 12298     5 
12296 12295 12297     5 
12296 12295 12298     5 
12297 12295 12298     5 
12295 12298 12299     5 
12295 12298 12300     5 
12295 12298 12301     5 
12299 12298 12300     5 
12299 12298 12301     5 
12300 12298 12301     5 
12298 12301 12302     5 
12298 12301 12303     5 
12298 12301 12304     5 
12302 12301 12303     5 
12302 12301 12304     5 
12303 12301 12304     5 
12301 12304 12305     5 
12301 12304 12306     5 
12301 12304 12307     5 
12305 12304 12306     5 
12305 12304 12307     5 
12306 12304 12307     5 
12304 12307 12308     5 
12304 12307 12309     5 
12304 12307 12310     5 
12308 12307 12309     5 
12308 12307 12310     5 
12309 12307 12310     5 
12307 12310 12311     5 
12307 12310 12312     5 
12307 12310 12313     5 
12311 12310 12312     5 
12311 12310 12313     5 
12312 12310 12313     5 
12310 12313 12314     5 
12310 12313 12315     5 
12310 12313 12316     5 
12314 12313 12315     5 
12314 12313 12316     5 
12315 12313 12316     5 
12313 12316 12317     5 
12313 12316 12318     5 
12313 12316 12319     5 
12317 12316 12318     5 
12317 12316 12319     5 
12318 12316 12319     5 
12316 12319 12320     5 
12316 12319 12321     5 
12316 12319 12322     5 
12320 12319 12321     5 
12320 12319 12322     5 
12321 12319 12322     5 
12319 12322 12323     5 
12319 12322 12324     5 
12319 12322 12325     5 
12323 12322 12324     5 
12323 12322 12325     5 
12324 12322 12325     5 
12322 12325 12326     5 
12322 12325 12327     5 
12322 12325 12328     5 
12326 12325 12327     5 
12326 12325 12328     5 
12327 12325 12328     5 
12330 12329 12333     5 
12330 12329 12337     5 
12330 12329 12341     5 
12333 12329 12337     5 
12333 12329 12341     5 
12337 12329 12341     5 
12329 12330 12331     5 
12329 12330 12332     5 
12329 12330 12345     5 
12331 12330 12332     5 
12331 12330 12345     5 
12332 12330 12345     5 
12329 12333 12334     5 
12329 12333 12335     5 
12329 12333 12336     5 
12334 12333 12335     5 
12334 12333 12336     5 
12335 12333 12336     5 
12329 12337 12338     5 
12329 12337 12339     5 
12329 12337 12340     5 
12338 12337 12339     5 
12338 12337 12340     5 
12339 12337 12340     5 
12329 12341 12342     5 
12329 12341 12343     5 
12329 12341 12344     5 
12342 12341 12343     5 
12342 12341 12344     5 
12343 12341 12344     5 
12330 12345 12346     5 
12330 12345 12347     5 
12330 12345 12351     5 
12346 12345 12347     5 
12346 12345 12351     5 
12347 12345 12351     5 
12349 12348 12350     5 
12349 12348 12351     5 
12349 12348 12352     5 
12350 12348 12351     5 
12350 12348 12352     5 
12351 12348 12352     5 
12345 12351 12348     5 
12348 12352 12353     5 
12352 12353 12354     5 
12352 12353 12355     5 
12352 12353 12356     5 
12354 12353 12355     5 
12354 12353 12356     5 
12355 12353 12356     5 
12353 12356 12357     5 
12353 12356 12358     5 
12353 12356 12364     5 
12357 12356 12358     5 
12357 12356 12364     5 
12358 12356 12364     5 
12356 12358 12359     5 
12358 12359 12360     5 
12358 12359 12361     5 
12360 12359 12361     5 
12359 12361 12362     5 
12359 12361 12363     5 
12359 12361 12373     5 
12362 12361 12363     5 
12362 12361 12373     5 
12363 12361 12373     5 
12356 12364 12365     5 
12356 12364 12366     5 
12356 12364 12367     5 
12365 12364 12366     5 
12365 12364 12367     5 
12366 12364 12367     5 
12364 12367 12368     5 
12367 12368 12369     5 
12367 12368 12370     5 
12369 12368 12370     5 
12368 12370 12371     5 
12368 12370 12372     5 
12368 12370 12420     5 
12371 12370 12372     5 
12371 12370 12420     5 
12372 12370 12420     5 
12361 12373 12374     5 
12361 12373 12375     5 
12361 12373 12376     5 
12374 12373 12375     5 
12374 12373 12376     5 
12375 12373 12376     5 
12373 12376 12377     5 
12373 12376 12378     5 
12373 12376 12379     5 
12377 12376 12378     5 
12377 12376 12379     5 
12378 12376 12379     5 
12376 12379 12380     5 
12376 12379 12381     5 
12376 12379 12382     5 
12380 12379 12381     5 
12380 12379 12382     5 
12381 12379 12382     5 
12379 12382 12383     5 
12379 12382 12384     5 
12379 12382 12385     5 
12383 12382 12384     5 
12383 12382 12385     5 
12384 12382 12385     5 
12382 12385 12386     5 
12382 12385 12387     5 
12382 12385 12388     5 
12386 12385 12387     5 
12386 12385 12388     5 
12387 12385 12388     5 
12385 12388 12389     5 
12385 12388 12390     5 
12385 12388 12391     5 
12389 12388 12390     5 
12389 12388 12391     5 
12390 12388 12391     5 
12388 12391 12392     5 
12388 12391 12393     5 
12392 12391 12393     5 
12391 12393 12394     5 
12391 12393 12395     5 
12394 12393 12395     5 
12393 12395 12396     5 
12393 12395 12397     5 
12393 12395 12398     5 
12396 12395 12397     5 
12396 12395 12398     5 
12397 12395 12398     5 
12395 12398 12399     5 
12395 12398 12400     5 
12395 12398 12401     5 
12399 12398 12400     5 
12399 12398 12401     5 
12400 12398 12401     5 
12398 12401 12402     5 
12398 12401 12403     5 
12398 12401 12404     5 
12402 12401 12403     5 
12402 12401 12404     5 
12403 12401 12404     5 
12401 12404 12405     5 
12401 12404 12406     5 
12401 12404 12407     5 
12405 12404 12406     5 
12405 12404 12407     5 
12406 12404 12407     5 
12404 12407 12408     5 
12404 12407 12409     5 
12404 12407 12410     5 
12408 12407 12409     5 
12408 12407 12410     5 
12409 12407 12410     5 
12407 12410 12411     5 
12407 12410 12412     5 
12407 12410 12413     5 
12411 12410 12412     5 
12411 12410 12413     5 
12412 12410 12413     5 
12410 12413 12414     5 
12410 12413 12415     5 
12410 12413 12416     5 
12414 12413 12415     5 
12414 12413 12416     5 
12415 12413 12416     5 
12413 12416 12417     5 
12413 12416 12418     5 
12413 12416 12419     5 
12417 12416 12418     5 
12417 12416 12419     5 
12418 12416 12419     5 
12370 12420 12421     5 
12370 12420 12422     5 
12370 12420 12423     5 
12421 12420 12422     5 
12421 12420 12423     5 
12422 12420 12423     5 
12420 12423 12424     5 
12420 12423 12425     5 
12420 12423 12426     5 
12424 12423 12425     5 
12424 12423 12426     5 
12425 12423 12426     5 
12423 12426 12427     5 
12423 12426 12428     5 
12423 12426 12429     5 
12427 12426 12428     5 
12427 12426 12429     5 
12428 12426 12429     5 
12426 12429 12430     5 
12426 12429 12431     5 
12426 12429 12432     5 
12430 12429 12431     5 
12430 12429 12432     5 
12431 12429 12432     5 
12429 12432 12433     5 
12429 12432 12434     5 
12429 12432 12435     5 
12433 12432 12434     5 
12433 12432 12435     5 
12434 12432 12435     5 
12432 12435 12436     5 
12432 12435 12437     5 
12432 12435 12438     5 
12436 12435 12437     5 
12436 12435 12438     5 
12437 12435 12438     5 
12435 12438 12439     5 
12435 12438 12440     5 
12435 12438 12441     5 
12439 12438 12440     5 
12439 12438 12441     5 
12440 12438 12441     5 
12438 12441 12442     5 
12438 12441 12443     5 
12438 12441 12444     5 
12442 12441 12443     5 
12442 12441 12444     5 
12443 12441 12444     5 
12441 12444 12445     5 
12441 12444 12446     5 
12441 12444 12447     5 
12445 12444 12446     5 
12445 12444 12447     5 
12446 12444 12447     5 
12444 12447 12448     5 
12444 12447 12449     5 
12444 12447 12450     5 
12448 12447 12449     5 
12448 12447 12450     5 
12449 12447 12450     5 
12447 12450 12451     5 
12447 12450 12452     5 
12447 12450 12453     5 
12451 12450 12452     5 
12451 12450 12453     5 
12452 12450 12453     5 
12450 12453 12454     5 
12450 12453 12455     5 
12450 12453 12456     5 
12454 12453 12455     5 
12454 12453 12456     5 
12455 12453 12456     5 
12453 12456 12457     5 
12453 12456 12458     5 
12453 12456 12459     5 
12457 12456 12458     5 
12457 12456 12459     5 
12458 12456 12459     5 
12456 12459 12460     5 
12456 12459 12461     5 
12456 12459 12462     5 
12460 12459 12461     5 
12460 12459 12462     5 
12461 12459 12462     5 
12464 12463 12467     5 
12464 12463 12471     5 
12464 12463 12475     5 
12467 12463 12471     5 
12467 12463 12475     5 
12471 12463 12475     5 
12463 12464 12465     5 
12463 12464 12466     5 
12463 12464 12479     5 
12465 12464 12466     5 
12465 12464 12479     5 
12466 12464 12479     5 
12463 12467 12468     5 
12463 12467 12469     5 
12463 12467 12470     5 
12468 12467 12469     5 
12468 12467 12470     5 
12469 12467 12470     5 
12463 12471 12472     5 
12463 12471 12473     5 
12463 12471 12474     5 
12472 12471 12473     5 
12472 12471 12474     5 
12473 12471 12474     5 
12463 12475 12476     5 
12463 12475 12477     5 
12463 12475 12478     5 
12476 12475 12477     5 
12476 12475 12478     5 
12477 12475 12478     5 
12464 12479 12480     5 
12464 12479 12481     5 
12464 12479 12485     5 
12480 12479 12481     5 
12480 12479 12485     5 
12481 12479 12485     5 
12483 12482 12484     5 
12483 12482 12485     5 
12483 12482 12486     5 
12484 12482 12485     5 
12484 12482 12486     5 
12485 12482 12486     5 
12479 12485 12482     5 
12482 12486 12487     5 
12486 12487 12488     5 
12486 12487 12489     5 
12486 12487 12490     5 
12488 12487 12489     5 
12488 12487 12490     5 
12489 12487 12490     5 
12487 12490 12491     5 
12487 12490 12492     5 
12487 12490 12498     5 
12491 12490 12492     5 
12491 12490 12498     5 
12492 12490 12498     5 
12490 12492 12493     5 
12492 12493 12494     5 
12492 12493 12495     5 
12494 12493 12495     5 
12493 12495 12496     5 
12493 12495 12497     5 
12493 12495 12507     5 
12496 12495 12497     5 
12496 12495 12507     5 
12497 12495 12507     5 
12490 12498 12499     5 
12490 12498 12500     5 
12490 12498 12501     5 
12499 12498 12500     5 
12499 12498 12501     5 
12500 12498 12501     5 
12498 12501 12502     5 
12501 12502 12503     5 
12501 12502 12504     5 
12503 12502 12504     5 
12502 12504 12505     5 
12502 12504 12506     5 
12502 12504 12554     5 
12505 12504 12506     5 
12505 12504 12554     5 
12506 12504 12554     5 
12495 12507 12508     5 
12495 12507 12509     5 
12495 12507 12510     5 
12508 12507 12509     5 
12508 12507 12510     5 
12509 12507 12510     5 
12507 12510 12511     5 
12507 12510 12512     5 
12507 12510 12513     5 
12511 12510 12512     5 
12511 12510 12513     5 
12512 12510 12513     5 
12510 12513 12514     5 
12510 12513 12515     5 
12510 12513 12516     5 
12514 12513 12515     5 
12514 12513 12516     5 
12515 12513 12516     5 
12513 12516 12517     5 
12513 12516 12518     5 
12513 12516 12519     5 
12517 12516 12518     5 
12517 12516 12519     5 
12518 12516 12519     5 
12516 12519 12520     5 
12516 12519 12521     5 
12516 12519 12522     5 
12520 12519 12521     5 
12520 12519 12522     5 
12521 12519 12522     5 
12519 12522 12523     5 
12519 12522 12524     5 
12519 12522 12525     5 
12523 12522 12524     5 
12523 12522 12525     5 
12524 12522 12525     5 
12522 12525 12526     5 
12522 12525 12527     5 
12526 12525 12527     5 
12525 12527 12528     5 
12525 12527 12529     5 
12528 12527 12529     5 
12527 12529 12530     5 
12527 12529 12531     5 
12527 12529 12532     5 
12530 12529 12531     5 
12530 12529 12532     5 
12531 12529 12532     5 
12529 12532 12533     5 
12529 12532 12534     5 
12529 12532 12535     5 
12533 12532 12534     5 
12533 12532 12535     5 
12534 12532 12535     5 
12532 12535 12536     5 
12532 12535 12537     5 
12532 12535 12538     5 
12536 12535 12537     5 
12536 12535 12538     5 
12537 12535 12538     5 
12535 12538 12539     5 
12535 12538 12540     5 
12535 12538 12541     5 
12539 12538 12540     5 
12539 12538 12541     5 
12540 12538 12541     5 
12538 12541 12542     5 
12538 12541 12543     5 
12538 12541 12544     5 
12542 12541 12543     5 
12542 12541 12544     5 
12543 12541 12544     5 
12541 12544 12545     5 
12541 12544 12546     5 
12541 12544 12547     5 
12545 12544 12546     5 
12545 12544 12547     5 
12546 12544 12547     5 
12544 12547 12548     5 
12544 12547 12549     5 
12544 12547 12550     5 
12548 12547 12549     5 
12548 12547 12550     5 
12549 12547 12550     5 
12547 12550 12551     5 
12547 12550 12552     5 
12547 12550 12553     5 
12551 12550 12552     5 
12551 12550 12553     5 
12552 12550 12553     5 
12504 12554 12555     5 
12504 12554 12556     5 
12504 12554 12557     5 
12555 12554 12556     5 
12555 12554 12557     5 
12556 12554 12557     5 
12554 12557 12558     5 
12554 12557 12559     5 
12554 12557 12560     5 
12558 12557 12559     5 
12558 12557 12560     5 
12559 12557 12560     5 
12557 12560 12561     5 
12557 12560 12562     5 
12557 12560 12563     5 
12561 12560 12562     5 
12561 12560 12563     5 
12562 12560 12563     5 
12560 12563 12564     5 
12560 12563 12565     5 
12560 12563 12566     5 
12564 12563 12565     5 
12564 12563 12566     5 
12565 12563 12566     5 
12563 12566 12567     5 
12563 12566 12568     5 
12563 12566 12569     5 
12567 12566 12568     5 
12567 12566 12569     5 
12568 12566 12569     5 
12566 12569 12570     5 
12566 12569 12571     5 
12566 12569 12572     5 
12570 12569 12571     5 
12570 12569 12572     5 
12571 12569 12572     5 
12569 12572 12573     5 
12569 12572 12574     5 
12569 12572 12575     5 
12573 12572 12574     5 
12573 12572 12575     5 
12574 12572 12575     5 
12572 12575 12576     5 
12572 12575 12577     5 
12572 12575 12578     5 
12576 12575 12577     5 
12576 12575 12578     5 
12577 12575 12578     5 
12575 12578 12579     5 
12575 12578 12580     5 
12575 12578 12581     5 
12579 12578 12580     5 
12579 12578 12581     5 
12580 12578 12581     5 
12578 12581 12582     5 
12578 12581 12583     5 
12578 12581 12584     5 
12582 12581 12583     5 
12582 12581 12584     5 
12583 12581 12584     5 
12581 12584 12585     5 
12581 12584 12586     5 
12581 12584 12587     5 
12585 12584 12586     5 
12585 12584 12587     5 
12586 12584 12587     5 
12584 12587 12588     5 
12584 12587 12589     5 
12584 12587 12590     5 
12588 12587 12589     5 
12588 12587 12590     5 
12589 12587 12590     5 
12587 12590 12591     5 
12587 12590 12592     5 
12587 12590 12593     5 
12591 12590 12592     5 
12591 12590 12593     5 
12592 12590 12593     5 
12590 12593 12594     5 
12590 12593 12595     5 
12590 12593 12596     5 
12594 12593 12595     5 
12594 12593 12596     5 
12595 12593 12596     5 
12598 12597 12601     5 
12598 12597 12605     5 
12598 12597 12609     5 
12601 12597 12605     5 
12601 12597 12609     5 
12605 12597 12609     5 
12597 12598 12599     5 
12597 12598 12600     5 
12597 12598 12613     5 
12599 12598 12600     5 
12599 12598 12613     5 
12600 12598 12613     5 
12597 12601 12602     5 
12597 12601 12603     5 
12597 12601 12604     5 
12602 12601 12603     5 
12602 12601 12604     5 
12603 12601 12604     5 
12597 12605 12606     5 
12597 12605 12607     5 
12597 12605 12608     5 
12606 12605 12607     5 
12606 12605 12608     5 
12607 12605 12608     5 
12597 12609 12610     5 
12597 12609 12611     5 
12597 12609 12612     5 
12610 12609 12611     5 
12610 12609 12612     5 
12611 12609 12612     5 
12598 12613 12614     5 
12598 12613 12615     5 
12598 12613 12619     5 
12614 12613 12615     5 
12614 12613 12619     5 
12615 12613 12619     5 
12617 12616 12618     5 
12617 12616 12619     5 
12617 12616 12620     5 
12618 12616 12619     5 
12618 12616 12620     5 
12619 12616 12620     5 
12613 12619 12616     5 
12616 12620 12621     5 
12620 12621 12622     5 
12620 12621 12623     5 
12620 12621 12624     5 
12622 12621 12623     5 
12622 12621 12624     5 
12623 12621 12624     5 
12621 12624 12625     5 
12621 12624 12626     5 
12621 12624 12632     5 
12625 12624 12626     5 
12625 12624 12632     5 
12626 12624 12632     5 
12624 12626 12627     5 
12626 12627 12628     5 
12626 12627 12629     5 
12628 12627 12629     5 
12627 12629 12630     5 
12627 12629 12631     5 
12627 12629 12641     5 
12630 12629 12631     5 
12630 12629 12641     5 
12631 12629 12641     5 
12624 12632 12633     5 
12624 12632 12634     5 
12624 12632 12635     5 
12633 12632 12634     5 
12633 12632 12635     5 
12634 12632 12635     5 
12632 12635 12636     5 
12635 12636 12637     5 
12635 12636 12638     5 
12637 12636 12638     5 
12636 12638 12639     5 
12636 12638 12640     5 
12636 12638 12688     5 
12639 12638 12640     5 
12639 12638 12688     5 
12640 12638 12688     5 
12629 12641 12642     5 
12629 12641 12643     5 
12629 12641 12644     5 
12642 12641 12643     5 
12642 12641 12644     5 
12643 12641 12644     5 
12641 12644 12645     5 
12641 12644 12646     5 
12641 12644 12647     5 
12645 12644 12646     5 
12645 12644 12647     5 
12646 12644 12647     5 
12644 12647 12648     5 
12644 12647 12649     5 
12644 12647 12650     5 
12648 12647 12649     5 
12648 12647 12650     5 
12649 12647 12650     5 
12647 12650 12651     5 
12647 12650 12652     5 
12647 12650 12653     5 
12651 12650 12652     5 
12651 12650 12653     5 
12652 12650 12653     5 
12650 12653 12654     5 
12650 12653 12655     5 
12650 12653 12656     5 
12654 12653 12655     5 
12654 12653 12656     5 
12655 12653 12656     5 
12653 12656 12657     5 
12653 12656 12658     5 
12653 12656 12659     5 
12657 12656 12658     5 
12657 12656 12659     5 
12658 12656 12659     5 
12656 12659 12660     5 
12656 12659 12661     5 
12660 12659 12661     5 
12659 12661 12662     5 
12659 12661 12663     5 
12662 12661 12663     5 
12661 12663 12664     5 
12661 12663 12665     5 
12661 12663 12666     5 
12664 12663 12665     5 
12664 12663 12666     5 
12665 12663 12666     5 
12663 12666 12667     5 
12663 12666 12668     5 
12663 12666 12669     5 
12667 12666 12668     5 
12667 12666 12669     5 
12668 12666 12669     5 
12666 12669 12670     5 
12666 12669 12671     5 
12666 12669 12672     5 
12670 12669 12671     5 
12670 12669 12672     5 
12671 12669 12672     5 
12669 12672 12673     5 
12669 12672 12674     5 
12669 12672 12675     5 
12673 12672 12674     5 
12673 12672 12675     5 
12674 12672 12675     5 
12672 12675 12676     5 
12672 12675 12677     5 
12672 12675 12678     5 
12676 12675 12677     5 
12676 12675 12678     5 
12677 12675 12678     5 
12675 12678 12679     5 
12675 12678 12680     5 
12675 12678 12681     5 
12679 12678 12680     5 
12679 12678 12681     5 
12680 12678 12681     5 
12678 12681 12682     5 
12678 12681 12683     5 
12678 12681 12684     5 
12682 12681 12683     5 
12682 12681 12684     5 
12683 12681 12684     5 
12681 12684 12685     5 
12681 12684 12686     5 
12681 12684 12687     5 
12685 12684 12686     5 
12685 12684 12687     5 
12686 12684 12687     5 
12638 12688 12689     5 
12638 12688 12690     5 
12638 12688 12691     5 
12689 12688 12690     5 
12689 12688 12691     5 
12690 12688 12691     5 
12688 12691 12692     5 
12688 12691 12693     5 
12688 12691 12694     5 
12692 12691 12693     5 
12692 12691 12694     5 
12693 12691 12694     5 
12691 12694 12695     5 
12691 12694 12696     5 
12691 12694 12697     5 
12695 12694 12696     5 
12695 12694 12697     5 
12696 12694 12697     5 
12694 12697 12698     5 
12694 12697 12699     5 
12694 12697 12700     5 
12698 12697 12699     5 
12698 12697 12700     5 
12699 12697 12700     5 
12697 12700 12701     5 
12697 12700 12702     5 
12697 12700 12703     5 
12701 12700 12702     5 
12701 12700 12703     5 
12702 12700 12703     5 
12700 12703 12704     5 
12700 12703 12705     5 
12700 12703 12706     5 
12704 12703 12705     5 
12704 12703 12706     5 
12705 12703 12706     5 
12703 12706 12707     5 
12703 12706 12708     5 
12703 12706 12709     5 
12707 12706 12708     5 
12707 12706 12709     5 
12708 12706 12709     5 
12706 12709 12710     5 
12706 12709 12711     5 
12706 12709 12712     5 
12710 12709 12711     5 
12710 12709 12712     5 
12711 12709 12712     5 
12709 12712 12713     5 
12709 12712 12714     5 
12709 12712 12715     5 
12713 12712 12714     5 
12713 12712 12715     5 
12714 12712 12715     5 
12712 12715 12716     5 
12712 12715 12717     5 
12712 12715 12718     5 
12716 12715 12717     5 
12716 12715 12718     5 
12717 12715 12718     5 
12715 12718 12719     5 
12715 12718 12720     5 
12715 12718 12721     5 
12719 12718 12720     5 
12719 12718 12721     5 
12720 12718 12721     5 
12718 12721 12722     5 
12718 12721 12723     5 
12718 12721 12724     5 
12722 12721 12723     5 
12722 12721 12724     5 
12723 12721 12724     5 
12721 12724 12725     5 
12721 12724 12726     5 
12721 12724 12727     5 
12725 12724 12726     5 
12725 12724 12727     5 
12726 12724 12727     5 
12724 12727 12728     5 
12724 12727 12729     5 
12724 12727 12730     5 
12728 12727 12729     5 
12728 12727 12730     5 
12729 12727 12730     5 
12732 12731 12735     5 
12732 12731 12739     5 
12732 12731 12743     5 
12735 12731 12739     5 
12735 12731 12743     5 
12739 12731 12743     5 
12731 12732 12733     5 
12731 12732 12734     5 
12731 12732 12747     5 
12733 12732 12734     5 
12733 12732 12747     5 
12734 12732 12747     5 
12731 12735 12736     5 
12731 12735 12737     5 
12731 12735 12738     5 
12736 12735 12737     5 
12736 12735 12738     5 
12737 12735 12738     5 
12731 12739 12740     5 
12731 12739 12741     5 
12731 12739 12742     5 
12740 12739 12741     5 
12740 12739 12742     5 
12741 12739 12742     5 
12731 12743 12744     5 
12731 12743 12745     5 
12731 12743 12746     5 
12744 12743 12745     5 
12744 12743 12746     5 
12745 12743 12746     5 
12732 12747 12748     5 
12732 12747 12749     5 
12732 12747 12753     5 
12748 12747 12749     5 
12748 12747 12753     5 
12749 12747 12753     5 
12751 12750 12752     5 
12751 12750 12753     5 
12751 12750 12754     5 
12752 12750 12753     5 
12752 12750 12754     5 
12753 12750 12754     5 
12747 12753 12750     5 
12750 12754 12755     5 
12754 12755 12756     5 
12754 12755 12757     5 
12754 12755 12758     5 
12756 12755 12757     5 
12756 12755 12758     5 
12757 12755 12758     5 
12755 12758 12759     5 
12755 12758 12760     5 
12755 12758 12766     5 
12759 12758 12760     5 
12759 12758 12766     5 
12760 12758 12766     5 
12758 12760 12761     5 
12760 12761 12762     5 
12760 12761 12763     5 
12762 12761 12763     5 
12761 12763 12764     5 
12761 12763 12765     5 
12761 12763 12775     5 
12764 12763 12765     5 
12764 12763 12775     5 
12765 12763 12775     5 
12758 12766 12767     5 
12758 12766 12768     5 
12758 12766 12769     5 
12767 12766 12768     5 
12767 12766 12769     5 
12768 12766 12769     5 
12766 12769 12770     5 
12769 12770 12771     5 
12769 12770 12772     5 
12771 12770 12772     5 
12770 12772 12773     5 
12770 12772 12774     5 
12770 12772 12822     5 
12773 12772 12774     5 
12773 12772 12822     5 
12774 12772 12822     5 
12763 12775 12776     5 
12763 12775 12777     5 
12763 12775 12778     5 
12776 12775 12777     5 
12776 12775 12778     5 
12777 12775 12778     5 
12775 12778 12779     5 
12775 12778 12780     5 
12775 12778 12781     5 
12779 12778 12780     5 
12779 12778 12781     5 
12780 12778 12781     5 
12778 12781 12782     5 
12778 12781 12783     5 
12778 12781 12784     5 
12782 12781 12783     5 
12782 12781 12784     5 
12783 12781 12784     5 
12781 12784 12785     5 
12781 12784 12786     5 
12781 12784 12787     5 
12785 12784 12786     5 
12785 12784 12787     5 
12786 12784 12787     5 
12784 12787 12788     5 
12784 12787 12789     5 
12784 12787 12790     5 
12788 12787 12789     5 
12788 12787 12790     5 
12789 12787 12790     5 
12787 12790 12791     5 
12787 12790 12792     5 
12787 12790 12793     5 
12791 12790 12792     5 
12791 12790 12793     5 
12792 12790 12793     5 
12790 12793 12794     5 
12790 12793 12795     5 
12794 12793 12795     5 
12793 12795 12796     5 
12793 12795 12797     5 
12796 12795 12797     5 
12795 12797 12798     5 
12795 12797 12799     5 
12795 12797 12800     5 
12798 12797 12799     5 
12798 12797 12800     5 
12799 12797 12800     5 
12797 12800 12801     5 
12797 12800 12802     5 
12797 12800 12803     5 
12801 12800 12802     5 
12801 12800 12803     5 
12802 12800 12803     5 
12800 12803 12804     5 
12800 12803 12805     5 
12800 12803 12806     5 
12804 12803 12805     5 
12804 12803 12806     5 
12805 12803 12806     5 
12803 12806 12807     5 
12803 12806 12808     5 
12803 12806 12809     5 
12807 12806 12808     5 
12807 12806 12809     5 
12808 12806 12809     5 
12806 12809 12810     5 
12806 12809 12811     5 
12806 12809 12812     5 
12810 12809 12811     5 
12810 12809 12812     5 
12811 12809 12812     5 
12809 12812 12813     5 
12809 12812 12814     5 
12809 12812 12815     5 
12813 12812 12814     5 
12813 12812 12815     5 
12814 12812 12815     5 
12812 12815 12816     5 
12812 12815 12817     5 
12812 12815 12818     5 
12816 12815 12817     5 
12816 12815 12818     5 
12817 12815 12818     5 
12815 12818 12819     5 
12815 12818 12820     5 
12815 12818 12821     5 
12819 12818 12820     5 
12819 12818 12821     5 
12820 12818 12821     5 
12772 12822 12823     5 
12772 12822 12824     5 
12772 12822 12825     5 
12823 12822 12824     5 
12823 12822 12825     5 
12824 12822 12825     5 
12822 12825 12826     5 
12822 12825 12827     5 
12822 12825 12828     5 
12826 12825 12827     5 
12826 12825 12828     5 
12827 12825 12828     5 
12825 12828 12829     5 
12825 12828 12830     5 
12825 12828 12831     5 
12829 12828 12830     5 
12829 12828 12831     5 
12830 12828 12831     5 
12828 12831 12832     5 
12828 12831 12833     5 
12828 12831 12834     5 
12832 12831 12833     5 
12832 12831 12834     5 
12833 12831 12834     5 
12831 12834 12835     5 
12831 12834 12836     5 
12831 12834 12837     5 
12835 12834 12836     5 
12835 12834 12837     5 
12836 12834 12837     5 
12834 12837 12838     5 
12834 12837 12839     5 
12834 12837 12840     5 
12838 12837 12839     5 
12838 12837 12840     5 
12839 12837 12840     5 
12837 12840 12841     5 
12837 12840 12842     5 
12837 12840 12843     5 
12841 12840 12842     5 
12841 12840 12843     5 
12842 12840 12843     5 
12840 12843 12844     5 
12840 12843 12845     5 
12840 12843 12846     5 
12844 12843 12845     5 
12844 12843 12846     5 
12845 12843 12846     5 
12843 12846 12847     5 
12843 12846 12848     5 
12843 12846 12849     5 
12847 12846 12848     5 
12847 12846 12849     5 
12848 12846 12849     5 
12846 12849 12850     5 
12846 12849 12851     5 
12846 12849 12852     5 
12850 12849 12851     5 
12850 12849 12852     5 
12851 12849 12852     5 
12849 12852 12853     5 
12849 12852 12854     5 
12849 12852 12855     5 
12853 12852 12854     5 
12853 12852 12855     5 
12854 12852 12855     5 
12852 12855 12856     5 
12852 12855 12857     5 
12852 12855 12858     5 
12856 12855 12857     5 
12856 12855 12858     5 
12857 12855 12858     5 
12855 12858 12859     5 
12855 12858 12860     5 
12855 12858 12861     5 
12859 12858 12860     5 
12859 12858 12861     5 
12860 12858 12861     5 
12858 12861 12862     5 
12858 12861 12863     5 
12858 12861 12864     5 
12862 12861 12863     5 
12862 12861 12864     5 
12863 12861 12864     5 
12866 12865 12869     5 
12866 12865 12873     5 
12866 12865 12877     5 
12869 12865 12873     5 
12869 12865 12877     5 
12873 12865 12877     5 
12865 12866 12867     5 
12865 12866 12868     5 
12865 12866 12881     5 
12867 12866 12868     5 
12867 12866 12881     5 
12868 12866 12881     5 
12865 12869 12870     5 
12865 12869 12871     5 
12865 12869 12872     5 
12870 12869 12871     5 
12870 12869 12872     5 
12871 12869 12872     5 
12865 12873 12874     5 
12865 12873 12875     5 
12865 12873 12876     5 
12874 12873 12875     5 
12874 12873 12876     5 
12875 12873 12876     5 
12865 12877 12878     5 
12865 12877 12879     5 
12865 12877 12880     5 
12878 12877 12879     5 
12878 12877 12880     5 
12879 12877 12880     5 
12866 12881 12882     5 
12866 12881 12883     5 
12866 12881 12887     5 
12882 12881 12883     5 
12882 12881 12887     5 
12883 12881 12887     5 
12885 12884 12886     5 
12885 12884 12887     5 
12885 12884 12888     5 
12886 12884 12887     5 
12886 12884 12888     5 
12887 12884 12888     5 
12881 12887 12884     5 
12884 12888 12889     5 
12888 12889 12890     5 
12888 12889 12891     5 
12888 12889 12892     5 
12890 12889 12891     5 
12890 12889 12892     5 
12891 12889 12892     5 
12889 12892 12893     5 
12889 12892 12894     5 
12889 12892 12900     5 
12893 12892 12894     5 
12893 12892 12900     5 
12894 12892 12900     5 
12892 12894 12895     5 
12894 12895 12896     5 
12894 12895 12897     5 
12896 12895 12897     5 
12895 12897 12898     5 
12895 12897 12899     5 
12895 12897 12909     5 
12898 12897 12899     5 
12898 12897 12909     5 
12899 12897 12909     5 
12892 12900 12901     5 
12892 12900 12902     5 
12892 12900 12903     5 
12901 12900 12902     5 
12901 12900 12903     5 
12902 12900 12903     5 
12900 12903 12904     5 
12903 12904 12905     5 
12903 12904 12906     5 
12905 12904 12906     5 
12904 12906 12907     5 
12904 12906 12908     5 
12904 12906 12956     5 
12907 12906 12908     5 
12907 12906 12956     5 
12908 12906 12956     5 
12897 12909 12910     5 
12897 12909 12911     5 
12897 12909 12912     5 
12910 12909 12911     5 
12910 12909 12912     5 
12911 12909 12912     5 
12909 12912 12913     5 
12909 12912 12914     5 
12909 12912 12915     5 
12913 12912 12914     5 
12913 12912 12915     5 
12914 12912 12915     5 
12912 12915 12916     5 
12912 12915 12917     5 
12912 12915 12918     5 
12916 12915 12917     5 
12916 12915 12918     5 
12917 12915 12918     5 
12915 12918 12919     5 
12915 12918 12920     5 
12915 12918 12921     5 
12919 12918 12920     5 
12919 12918 12921     5 
12920 12918 12921     5 
12918 12921 12922     5 
12918 12921 12923     5 
12918 12921 12924     5 
12922 12921 12923     5 
12922 12921 12924     5 
12923 12921 12924     5 
12921 12924 12925     5 
12921 12924 12926     5 
12921 12924 12927     5 
12925 12924 12926     5 
12925 12924 12927     5 
12926 12924 12927     5 
12924 12927 12928     5 
12924 12927 12929     5 
12928 12927 12929     5 
12927 12929 12930     5 
12927 12929 12931     5 
12930 12929 12931     5 
12929 12931 12932     5 
12929 12931 12933     5 
12929 12931 12934     5 
12932 12931 12933     5 
12932 12931 12934     5 
12933 12931 12934     5 
12931 12934 12935     5 
12931 12934 12936     5 
12931 12934 12937     5 
12935 12934 12936     5 
12935 12934 12937     5 
12936 12934 12937     5 
12934 12937 12938     5 
12934 12937 12939     5 
12934 12937 12940     5 
12938 12937 12939     5 
12938 12937 12940     5 
12939 12937 12940     5 
12937 12940 12941     5 
12937 12940 12942     5 
12937 12940 12943     5 
12941 12940 12942     5 
12941 12940 12943     5 
12942 12940 12943     5 
12940 12943 12944     5 
12940 12943 12945     5 
12940 12943 12946     5 
12944 12943 12945     5 
12944 12943 12946     5 
12945 12943 12946     5 
12943 12946 12947     5 
12943 12946 12948     5 
12943 12946 12949     5 
12947 12946 12948     5 
12947 12946 12949     5 
12948 12946 12949     5 
12946 12949 12950     5 
12946 12949 12951     5 
12946 12949 12952     5 
12950 12949 12951     5 
12950 12949 12952     5 
12951 12949 12952     5 
12949 12952 12953     5 
12949 12952 12954     5 
12949 12952 12955     5 
12953 12952 12954     5 
12953 12952 12955     5 
12954 12952 12955     5 
12906 12956 12957     5 
12906 12956 12958     5 
12906 12956 12959     5 
12957 12956 12958     5 
12957 12956 12959     5 
12958 12956 12959     5 
12956 12959 12960     5 
12956 12959 12961     5 
12956 12959 12962     5 
12960 12959 12961     5 
12960 12959 12962     5 
12961 12959 12962     5 
12959 12962 12963     5 
12959 12962 12964     5 
12959 12962 12965     5 
12963 12962 12964     5 
12963 12962 12965     5 
12964 12962 12965     5 
12962 12965 12966     5 
12962 12965 12967     5 
12962 12965 12968     5 
12966 12965 12967     5 
12966 12965 12968     5 
12967 12965 12968     5 
12965 12968 12969     5 
12965 12968 12970     5 
12965 12968 12971     5 
12969 12968 12970     5 
12969 12968 12971     5 
12970 12968 12971     5 
12968 12971 12972     5 
12968 12971 12973     5 
12968 12971 12974     5 
12972 12971 12973     5 
12972 12971 12974     5 
12973 12971 12974     5 
12971 12974 12975     5 
12971 12974 12976     5 
12971 12974 12977     5 
12975 12974 12976     5 
12975 12974 12977     5 
12976 12974 12977     5 
12974 12977 12978     5 
12974 12977 12979     5 
12974 12977 12980     5 
12978 12977 12979     5 
12978 12977 12980     5 
12979 12977 12980     5 
12977 12980 12981     5 
12977 12980 12982     5 
12977 12980 12983     5 
12981 12980 12982     5 
12981 12980 12983     5 
12982 12980 12983     5 
12980 12983 12984     5 
12980 12983 12985     5 
12980 12983 12986     5 
12984 12983 12985     5 
12984 12983 12986     5 
12985 12983 12986     5 
12983 12986 12987     5 
12983 12986 12988     5 
12983 12986 12989     5 
12987 12986 12988     5 
12987 12986 12989     5 
12988 12986 12989     5 
12986 12989 12990     5 
12986 12989 12991     5 
12986 12989 12992     5 
12990 12989 12991     5 
12990 12989 12992     5 
12991 12989 12992     5 
12989 12992 12993     5 
12989 12992 12994     5 
12989 12992 12995     5 
12993 12992 12994     5 
12993 12992 12995     5 
12994 12992 12995     5 
12992 12995 12996     5 
12992 12995 12997     5 
12992 12995 12998     5 
12996 12995 12997     5 
12996 12995 12998     5 
12997 12995 12998     5 
13000 12999 13003     5 
13000 12999 13007     5 
13000 12999 13011     5 
13003 12999 13007     5 
13003 12999 13011     5 
13007 12999 13011     5 
12999 13000 13001     5 
12999 13000 13002     5 
12999 13000 13015     5 
13001 13000 13002     5 
13001 13000 13015     5 
13002 13000 13015     5 
12999 13003 13004     5 
12999 13003 13005     5 
12999 13003 13006     5 
13004 13003 13005     5 
13004 13003 13006     5 
13005 13003 13006     5 
12999 13007 13008     5 
12999 13007 13009     5 
12999 13007 13010     5 
13008 13007 13009     5 
13008 13007 13010     5 
13009 13007 13010     5 
12999 13011 13012     5 
12999 13011 13013     5 
12999 13011 13014     5 
13012 13011 13013     5 
13012 13011 13014     5 
13013 13011 13014     5 
13000 13015 13016     5 
13000 13015 13017     5 
13000 13015 13021     5 
13016 13015 13017     5 
13016 13015 13021     5 
13017 13015 13021     5 
13019 13018 13020     5 
13019 13018 13021     5 
13019 13018 13022     5 
13020 13018 13021     5 
13020 13018 13022     5 
13021 13018 13022     5 
13015 13021 13018     5 
13018 13022 13023     5 
13022 13023 13024     5 
13022 13023 13025     5 
13022 13023 13026     5 
13024 13023 13025     5 
13024 13023 13026     5 
13025 13023 13026     5 
13023 13026 13027     5 
13023 13026 13028     5 
13023 13026 13034     5 
13027 13026 13028     5 
13027 13026 13034     5 
13028 13026 13034     5 
13026 13028 13029     5 
13028 13029 13030     5 
13028 13029 13031     5 
13030 13029 13031     5 
13029 13031 13032     5 
13029 13031 13033     5 
13029 13031 13043     5 
13032 13031 13033     5 
13032 13031 13043     5 
13033 13031 13043     5 
13026 13034 13035     5 
13026 13034 13036     5 
13026 13034 13037     5 
13035 13034 13036     5 
13035 13034 13037     5 
13036 13034 13037     5 
13034 13037 13038     5 
13037 13038 13039     5 
13037 13038 13040     5 
13039 13038 13040     5 
13038 13040 13041     5 
13038 13040 13042     5 
13038 13040 13090     5 
13041 13040 13042     5 
13041 13040 13090     5 
13042 13040 13090     5 
13031 13043 13044     5 
13031 13043 13045     5 
13031 13043 13046     5 
13044 13043 13045     5 
13044 13043 13046     5 
13045 13043 13046     5 
13043 13046 13047     5 
13043 13046 13048     5 
13043 13046 13049     5 
13047 13046 13048     5 
13047 13046 13049     5 
13048 13046 13049     5 
13046 13049 13050     5 
13046 13049 13051     5 
13046 13049 13052     5 
13050 13049 13051     5 
13050 13049 13052     5 
13051 13049 13052     5 
13049 13052 13053     5 
13049 13052 13054     5 
13049 13052 13055     5 
13053 13052 13054     5 
13053 13052 13055     5 
13054 13052 13055     5 
13052 13055 13056     5 
13052 13055 13057     5 
13052 13055 13058     5 
13056 13055 13057     5 
13056 13055 13058     5 
13057 13055 13058     5 
13055 13058 13059     5 
13055 13058 13060     5 
13055 13058 13061     5 
13059 13058 13060     5 
13059 13058 13061     5 
13060 13058 13061     5 
13058 13061 13062     5 
13058 13061 13063     5 
13062 13061 13063     5 
13061 13063 13064     5 
13061 13063 13065     5 
13064 13063 13065     5 
13063 13065 13066     5 
13063 13065 13067     5 
13063 13065 13068     5 
13066 13065 13067     5 
13066 13065 13068     5 
13067 13065 13068     5 
13065 13068 13069     5 
13065 13068 13070     5 
13065 13068 13071     5 
13069 13068 13070     5 
13069 13068 13071     5 
13070 13068 13071     5 
13068 13071 13072     5 
13068 13071 13073     5 
13068 13071 13074     5 
13072 13071 13073     5 
13072 13071 13074     5 
13073 13071 13074     5 
13071 13074 13075     5 
13071 13074 13076     5 
13071 13074 13077     5 
13075 13074 13076     5 
13075 13074 13077     5 
13076 13074 13077     5 
13074 13077 13078     5 
13074 13077 13079     5 
13074 13077 13080     5 
13078 13077 13079     5 
13078 13077 13080     5 
13079 13077 13080     5 
13077 13080 13081     5 
13077 13080 13082     5 
13077 13080 13083     5 
13081 13080 13082     5 
13081 13080 13083     5 
13082 13080 13083     5 
13080 13083 13084     5 
13080 13083 13085     5 
13080 13083 13086     5 
13084 13083 13085     5 
13084 13083 13086     5 
13085 13083 13086     5 
13083 13086 13087     5 
13083 13086 13088     5 
13083 13086 13089     5 
13087 13086 13088     5 
13087 13086 13089     5 
13088 13086 13089     5 
13040 13090 13091     5 
13040 13090 13092     5 
13040 13090 13093     5 
13091 13090 13092     5 
13091 13090 13093     5 
13092 13090 13093     5 
13090 13093 13094     5 
13090 13093 13095     5 
13090 13093 13096     5 
13094 13093 13095     5 
13094 13093 13096     5 
13095 13093 13096     5 
13093 13096 13097     5 
13093 13096 13098     5 
13093 13096 13099     5 
13097 13096 13098     5 
13097 13096 13099     5 
13098 13096 13099     5 
13096 13099 13100     5 
13096 13099 13101     5 
13096 13099 13102     5 
13100 13099 13101     5 
13100 13099 13102     5 
13101 13099 13102     5 
13099 13102 13103     5 
13099 13102 13104     5 
13099 13102 13105     5 
13103 13102 13104     5 
13103 13102 13105     5 
13104 13102 13105     5 
13102 13105 13106     5 
13102 13105 13107     5 
13102 13105 13108     5 
13106 13105 13107     5 
13106 13105 13108     5 
13107 13105 13108     5 
13105 13108 13109     5 
13105 13108 13110     5 
13105 13108 13111     5 
13109 13108 13110     5 
13109 13108 13111     5 
13110 13108 13111     5 
13108 13111 13112     5 
13108 13111 13113     5 
13108 13111 13114     5 
13112 13111 13113     5 
13112 13111 13114     5 
13113 13111 13114     5 
13111 13114 13115     5 
13111 13114 13116     5 
13111 13114 13117     5 
13115 13114 13116     5 
13115 13114 13117     5 
13116 13114 13117     5 
13114 13117 13118     5 
13114 13117 13119     5 
13114 13117 13120     5 
13118 13117 13119     5 
13118 13117 13120     5 
13119 13117 13120     5 
13117 13120 13121     5 
13117 13120 13122     5 
13117 13120 13123     5 
13121 13120 13122     5 
13121 13120 13123     5 
13122 13120 13123     5 
13120 13123 13124     5 
13120 13123 13125     5 
13120 13123 13126     5 
13124 13123 13125     5 
13124 13123 13126     5 
13125 13123 13126     5 
13123 13126 13127     5 
13123 13126 13128     5 
13123 13126 13129     5 
13127 13126 13128     5 
13127 13126 13129     5 
13128 13126 13129     5 
13126 13129 13130     5 
13126 13129 13131     5 
13126 13129 13132     5 
13130 13129 13131     5 
13130 13129 13132     5 
13131 13129 13132     5 
13134 13133 13137     5 
13134 13133 13141     5 
13134 13133 13145     5 
13137 13133 13141     5 
13137 13133 13145     5 
13141 13133 13145     5 
13133 13134 13135     5 
13133 13134 13136     5 
13133 13134 13149     5 
13135 13134 13136     5 
13135 13134 13149     5 
13136 13134 13149     5 
13133 13137 13138     5 
13133 13137 13139     5 
13133 13137 13140     5 
13138 13137 13139     5 
13138 13137 13140     5 
13139 13137 13140     5 
13133 13141 13142     5 
13133 13141 13143     5 
13133 13141 13144     5 
13142 13141 13143     5 
13142 13141 13144     5 
13143 13141 13144     5 
13133 13145 13146     5 
13133 13145 13147     5 
13133 13145 13148     5 
13146 13145 13147     5 
13146 13145 13148     5 
13147 13145 13148     5 
13134 13149 13150     5 
13134 13149 13151     5 
13134 13149 13155     5 
13150 13149 13151     5 
13150 13149 13155     5 
13151 13149 13155     5 
13153 13152 13154     5 
13153 13152 13155     5 
13153 13152 13156     5 
13154 13152 13155     5 
13154 13152 13156     5 
13155 13152 13156     5 
13149 13155 13152     5 
13152 13156 13157     5 
13156 13157 13158     5 
13156 13157 13159     5 
13156 13157 13160     5 
13158 13157 13159     5 
13158 13157 13160     5 
13159 13157 13160     5 
13157 13160 13161     5 
13157 13160 13162     5 
13157 13160 13168     5 
13161 13160 13162     5 
13161 13160 13168     5 
13162 13160 13168     5 
13160 13162 13163     5 
13162 13163 13164     5 
13162 13163 13165     5 
13164 13163 13165     5 
13163 13165 13166     5 
13163 13165 13167     5 
13163 13165 13177     5 
13166 13165 13167     5 
13166 13165 13177     5 
13167 13165 13177     5 
13160 13168 13169     5 
13160 13168 13170     5 
13160 13168 13171     5 
13169 13168 13170     5 
13169 13168 13171     5 
13170 13168 13171     5 
13168 13171 13172     5 
13171 13172 13173     5 
13171 13172 13174     5 
13173 13172 13174     5 
13172 13174 13175     5 
13172 13174 13176     5 
13172 13174 13224     5 
13175 13174 13176     5 
13175 13174 13224     5 
13176 13174 13224     5 
13165 13177 13178     5 
13165 13177 13179     5 
13165 13177 13180     5 
13178 13177 13179     5 
13178 13177 13180     5 
13179 13177 13180     5 
13177 13180 13181     5 
13177 13180 13182     5 
13177 13180 13183     5 
13181 13180 13182     5 
13181 13180 13183     5 
13182 13180 13183     5 
13180 13183 13184     5 
13180 13183 13185     5 
13180 13183 13186     5 
13184 13183 13185     5 
13184 13183 13186     5 
13185 13183 13186     5 
13183 13186 13187     5 
13183 13186 13188     5 
13183 13186 13189     5 
13187 13186 13188     5 
13187 13186 13189     5 
13188 13186 13189     5 
13186 13189 13190     5 
13186 13189 13191     5 
13186 13189 13192     5 
13190 13189 13191     5 
13190 13189 13192     5 
13191 13189 13192     5 
13189 13192 13193     5 
13189 13192 13194     5 
13189 13192 13195     5 
13193 13192 13194     5 
13193 13192 13195     5 
13194 13192 13195     5 
13192 13195 13196     5 
13192 13195 13197     5 
13196 13195 13197     5 
13195 13197 13198     5 
13195 13197 13199     5 
13198 13197 13199     5 
13197 13199 13200     5 
13197 13199 13201     5 
13197 13199 13202     5 
13200 13199 13201     5 
13200 13199 13202     5 
13201 13199 13202     5 
13199 13202 13203     5 
13199 13202 13204     5 
13199 13202 13205     5 
13203 13202 13204     5 
13203 13202 13205     5 
13204 13202 13205     5 
13202 13205 13206     5 
13202 13205 13207     5 
13202 13205 13208     5 
13206 13205 13207     5 
13206 13205 13208     5 
13207 13205 13208     5 
13205 13208 13209     5 
13205 13208 13210     5 
13205 13208 13211     5 
13209 13208 13210     5 
13209 13208 13211     5 
13210 13208 13211     5 
13208 13211 13212     5 
13208 13211 13213     5 
13208 13211 13214     5 
13212 13211 13213     5 
13212 13211 13214     5 
13213 13211 13214     5 
13211 13214 13215     5 
13211 13214 13216     5 
13211 13214 13217     5 
13215 13214 13216     5 
13215 13214 13217     5 
13216 13214 13217     5 
13214 13217 13218     5 
13214 13217 13219     5 
13214 13217 13220     5 
13218 13217 13219     5 
13218 13217 13220     5 
13219 13217 13220     5 
13217 13220 13221     5 
13217 13220 13222     5 
13217 13220 13223     5 
13221 13220 13222     5 
13221 13220 13223     5 
13222 13220 13223     5 
13174 13224 13225     5 
13174 13224 13226     5 
13174 13224 13227     5 
13225 13224 13226     5 
13225 13224 13227     5 
13226 13224 13227     5 
13224 13227 13228     5 
13224 13227 13229     5 
13224 13227 13230     5 
13228 13227 13229     5 
13228 13227 13230     5 
13229 13227 13230     5 
13227 13230 13231     5 
13227 13230 13232     5 
13227 13230 13233     5 
13231 13230 13232     5 
13231 13230 13233     5 
13232 13230 13233     5 
13230 13233 13234     5 
13230 13233 13235     5 
13230 13233 13236     5 
13234 13233 13235     5 
13234 13233 13236     5 
13235 13233 13236     5 
13233 13236 13237     5 
13233 13236 13238     5 
13233 13236 13239     5 
13237 13236 13238     5 
13237 13236 13239     5 
13238 13236 13239     5 
13236 13239 13240     5 
13236 13239 13241     5 
13236 13239 13242     5 
13240 13239 13241     5 
13240 13239 13242     5 
13241 13239 13242     5 
13239 13242 13243     5 
13239 13242 13244     5 
13239 13242 13245     5 
13243 13242 13244     5 
13243 13242 13245     5 
13244 13242 13245     5 
13242 13245 13246     5 
13242 13245 13247     5 
13242 13245 13248     5 
13246 13245 13247     5 
13246 13245 13248     5 
13247 13245 13248     5 
13245 13248 13249     5 
13245 13248 13250     5 
13245 13248 13251     5 
13249 13248 13250     5 
13249 13248 13251     5 
13250 13248 13251     5 
13248 13251 13252     5 
13248 13251 13253     5 
13248 13251 13254     5 
13252 13251 13253     5 
13252 13251 13254     5 
13253 13251 13254     5 
13251 13254 13255     5 
13251 13254 13256     5 
13251 13254 13257     5 
13255 13254 13256     5 
13255 13254 13257     5 
13256 13254 13257     5 
13254 13257 13258     5 
13254 13257 13259     5 
13254 13257 13260     5 
13258 13257 13259     5 
13258 13257 13260     5 
13259 13257 13260     5 
13257 13260 13261     5 
13257 13260 13262     5 
13257 13260 13263     5 
13261 13260 13262     5 
13261 13260 13263     5 
13262 13260 13263     5 
13260 13263 13264     5 
13260 13263 13265     5 
13260 13263 13266     5 
13264 13263 13265     5 
13264 13263 13266     5 
13265 13263 13266     5 
13268 13267 13271     5 
13268 13267 13275     5 
13268 13267 13279     5 
13271 13267 13275     5 
13271 13267 13279     5 
13275 13267 13279     5 
13267 13268 13269     5 
13267 13268 13270     5 
13267 13268 13283     5 
13269 13268 13270     5 
13269 13268 13283     5 
13270 13268 13283     5 
13267 13271 13272     5 
13267 13271 13273     5 
13267 13271 13274     5 
13272 13271 13273     5 
13272 13271 13274     5 
13273 13271 13274     5 
13267 13275 13276     5 
13267 13275 13277     5 
13267 13275 13278     5 
13276 13275 13277     5 
13276 13275 13278     5 
13277 13275 13278     5 
13267 13279 13280     5 
13267 13279 13281     5 
13267 13279 13282     5 
13280 13279 13281     5 
13280 13279 13282     5 
13281 13279 13282     5 
13268 13283 13284     5 
13268 13283 13285     5 
13268 13283 13289     5 
13284 13283 13285     5 
13284 13283 13289     5 
13285 13283 13289     5 
13287 13286 13288     5 
13287 13286 13289     5 
13287 13286 13290     5 
13288 13286 13289     5 
13288 13286 13290     5 
13289 13286 13290     5 
13283 13289 13286     5 
13286 13290 13291     5 
13290 13291 13292     5 
13290 13291 13293     5 
13290 13291 13294     5 
13292 13291 13293     5 
13292 13291 13294     5 
13293 13291 13294     5 
13291 13294 13295     5 
13291 13294 13296     5 
13291 13294 13302     5 
13295 13294 13296     5 
13295 13294 13302     5 
13296 13294 13302     5 
13294 13296 13297     5 
13296 13297 13298     5 
13296 13297 13299     5 
13298 13297 13299     5 
13297 13299 13300     5 
13297 13299 13301     5 
13297 13299 13311     5 
13300 13299 13301     5 
13300 13299 13311     5 
13301 13299 13311     5 
13294 13302 13303     5 
13294 13302 13304     5 
13294 13302 13305     5 
13303 13302 13304     5 
13303 13302 13305     5 
13304 13302 13305     5 
13302 13305 13306     5 
13305 13306 13307     5 
13305 13306 13308     5 
13307 13306 13308     5 
13306 13308 13309     5 
13306 13308 13310     5 
13306 13308 13358     5 
13309 13308 13310     5 
13309 13308 13358     5 
13310 13308 13358     5 
13299 13311 13312     5 
13299 13311 13313     5 
13299 13311 13314     5 
13312 13311 13313     5 
13312 13311 13314     5 
13313 13311 13314     5 
13311 13314 13315     5 
13311 13314 13316     5 
13311 13314 13317     5 
13315 13314 13316     5 
13315 13314 13317     5 
13316 13314 13317     5 
13314 13317 13318     5 
13314 13317 13319     5 
13314 13317 13320     5 
13318 13317 13319     5 
13318 13317 13320     5 
13319 13317 13320     5 
13317 13320 13321     5 
13317 13320 13322     5 
13317 13320 13323     5 
13321 13320 13322     5 
13321 13320 13323     5 
13322 13320 13323     5 
13320 13323 13324     5 
13320 13323 13325     5 
13320 13323 13326     5 
13324 13323 13325     5 
13324 13323 13326     5 
13325 13323 13326     5 
13323 13326 13327     5 
13323 13326 13328     5 
13323 13326 13329     5 
13327 13326 13328     5 
13327 13326 13329     5 
13328 13326 13329     5 
13326 13329 13330     5 
13326 13329 13331     5 
13330 13329 13331     5 
13329 13331 13332     5 
13329 13331 13333     5 
13332 13331 13333     5 
13331 13333 13334     5 
13331 13333 13335     5 
13331 13333 13336     5 
13334 13333 13335     5 
13334 13333 13336     5 
13335 13333 13336     5 
13333 13336 13337     5 
13333 13336 13338     5 
13333 13336 13339     5 
13337 13336 13338     5 
13337 13336 13339     5 
13338 13336 13339     5 
13336 13339 13340     5 
13336 13339 13341     5 
13336 13339 13342     5 
13340 13339 13341     5 
13340 13339 13342     5 
13341 13339 13342     5 
13339 13342 13343     5 
13339 13342 13344     5 
13339 13342 13345     5 
13343 13342 13344     5 
13343 13342 13345     5 
13344 13342 13345     5 
13342 13345 13346     5 
13342 13345 13347     5 
13342 13345 13348     5 
13346 13345 13347     5 
13346 13345 13348     5 
13347 13345 13348     5 
13345 13348 13349     5 
13345 13348 13350     5 
13345 13348 13351     5 
13349 13348 13350     5 
13349 13348 13351     5 
13350 13348 13351     5 
13348 13351 13352     5 
13348 13351 13353     5 
13348 13351 13354     5 
13352 13351 13353     5 
13352 13351 13354     5 
13353 13351 13354     5 
13351 13354 13355     5 
13351 13354 13356     5 
13351 13354 13357     5 
13355 13354 13356     5 
13355 13354 13357     5 
13356 13354 13357     5 
13308 13358 13359     5 
13308 13358 13360     5 
13308 13358 13361     5 
13359 13358 13360     5 
13359 13358 13361     5 
13360 13358 13361     5 
13358 13361 13362     5 
13358 13361 13363     5 
13358 13361 13364     5 
13362 13361 13363     5 
13362 13361 13364     5 
13363 13361 13364     5 
13361 13364 13365     5 
13361 13364 13366     5 
13361 13364 13367     5 
13365 13364 13366     5 
13365 13364 13367     5 
13366 13364 13367     5 
13364 13367 13368     5 
13364 13367 13369     5 
13364 13367 13370     5 
13368 13367 13369     5 
13368 13367 13370     5 
13369 13367 13370     5 
13367 13370 13371     5 
13367 13370 13372     5 
13367 13370 13373     5 
13371 13370 13372     5 
13371 13370 13373     5 
13372 13370 13373     5 
13370 13373 13374     5 
13370 13373 13375     5 
13370 13373 13376     5 
13374 13373 13375     5 
13374 13373 13376     5 
13375 13373 13376     5 
13373 13376 13377     5 
13373 13376 13378     5 
13373 13376 13379     5 
13377 13376 13378     5 
13377 13376 13379     5 
13378 13376 13379     5 
13376 13379 13380     5 
13376 13379 13381     5 
13376 13379 13382     5 
13380 13379 13381     5 
13380 13379 13382     5 
13381 13379 13382     5 
13379 13382 13383     5 
13379 13382 13384     5 
13379 13382 13385     5 
13383 13382 13384     5 
13383 13382 13385     5 
13384 13382 13385     5 
13382 13385 13386     5 
13382 13385 13387     5 
13382 13385 13388     5 
13386 13385 13387     5 
13386 13385 13388     5 
13387 13385 13388     5 
13385 13388 13389     5 
13385 13388 13390     5 
13385 13388 13391     5 
13389 13388 13390     5 
13389 13388 13391     5 
13390 13388 13391     5 
13388 13391 13392     5 
13388 13391 13393     5 
13388 13391 13394     5 
13392 13391 13393     5 
13392 13391 13394     5 
13393 13391 13394     5 
13391 13394 13395     5 
13391 13394 13396     5 
13391 13394 13397     5 
13395 13394 13396     5 
13395 13394 13397     5 
13396 13394 13397     5 
13394 13397 13398     5 
13394 13397 13399     5 
13394 13397 13400     5 
13398 13397 13399     5 
13398 13397 13400     5 
13399 13397 13400     5 
13402 13401 13405     5 
13402 13401 13409     5 
13402 13401 13413     5 
13405 13401 13409     5 
13405 13401 13413     5 
13409 13401 13413     5 
13401 13402 13403     5 
13401 13402 13404     5 
13401 13402 13417     5 
13403 13402 13404     5 
13403 13402 13417     5 
13404 13402 13417     5 
13401 13405 13406     5 
13401 13405 13407     5 
13401 13405 13408     5 
13406 13405 13407     5 
13406 13405 13408     5 
13407 13405 13408     5 
13401 13409 13410     5 
13401 13409 13411     5 
13401 13409 13412     5 
13410 13409 13411     5 
13410 13409 13412     5 
13411 13409 13412     5 
13401 13413 13414     5 
13401 13413 13415     5 
13401 13413 13416     5 
13414 13413 13415     5 
13414 13413 13416     5 
13415 13413 13416     5 
13402 13417 13418     5 
13402 13417 13419     5 
13402 13417 13423     5 
13418 13417 13419     5 
13418 13417 13423     5 
13419 13417 13423     5 
13421 13420 13422     5 
13421 13420 13423     5 
13421 13420 13424     5 
13422 13420 13423     5 
13422 13420 13424     5 
13423 13420 13424     5 
13417 13423 13420     5 
13420 13424 13425     5 
13424 13425 13426     5 
13424 13425 13427     5 
13424 13425 13428     5 
13426 13425 13427     5 
13426 13425 13428     5 
13427 13425 13428     5 
13425 13428 13429     5 
13425 13428 13430     5 
13425 13428 13436     5 
13429 13428 13430     5 
13429 13428 13436     5 
13430 13428 13436     5 
13428 13430 13431     5 
13430 13431 13432     5 
13430 13431 13433     5 
13432 13431 13433     5 
13431 13433 13434     5 
13431 13433 13435     5 
13431 13433 13445     5 
13434 13433 13435     5 
13434 13433 13445     5 
13435 13433 13445     5 
13428 13436 13437     5 
13428 13436 13438     5 
13428 13436 13439     5 
13437 13436 13438     5 
13437 13436 13439     5 
13438 13436 13439     5 
13436 13439 13440     5 
13439 13440 13441     5 
13439 13440 13442     5 
13441 13440 13442     5 
13440 13442 13443     5 
13440 13442 13444     5 
13440 13442 13492     5 
13443 13442 13444     5 
13443 13442 13492     5 
13444 13442 13492     5 
13433 13445 13446     5 
13433 13445 13447     5 
13433 13445 13448     5 
13446 13445 13447     5 
13446 13445 13448     5 
13447 13445 13448     5 
13445 13448 13449     5 
13445 13448 13450     5 
13445 13448 13451     5 
13449 13448 13450     5 
13449 13448 13451     5 
13450 13448 13451     5 
13448 13451 13452     5 
13448 13451 13453     5 
13448 13451 13454     5 
13452 13451 13453     5 
13452 13451 13454     5 
13453 13451 13454     5 
13451 13454 13455     5 
13451 13454 13456     5 
13451 13454 13457     5 
13455 13454 13456     5 
13455 13454 13457     5 
13456 13454 13457     5 
13454 13457 13458     5 
13454 13457 13459     5 
13454 13457 13460     5 
13458 13457 13459     5 
13458 13457 13460     5 
13459 13457 13460     5 
13457 13460 13461     5 
13457 13460 13462     5 
13457 13460 13463     5 
13461 13460 13462     5 
13461 13460 13463     5 
13462 13460 13463     5 
13460 13463 13464     5 
13460 13463 13465     5 
13464 13463 13465     5 
13463 13465 13466     5 
13463 13465 13467     5 
13466 13465 13467     5 
13465 13467 13468     5 
13465 13467 13469     5 
13465 13467 13470     5 
13468 13467 13469     5 
13468 13467 13470     5 
13469 13467 13470     5 
13467 13470 13471     5 
13467 13470 13472     5 
13467 13470 13473     5 
13471 13470 13472     5 
13471 13470 13473     5 
13472 13470 13473     5 
13470 13473 13474     5 
13470 13473 13475     5 
13470 13473 13476     5 
13474 13473 13475     5 
13474 13473 13476     5 
13475 13473 13476     5 
13473 13476 13477     5 
13473 13476 13478     5 
13473 13476 13479     5 
13477 13476 13478     5 
13477 13476 13479     5 
13478 13476 13479     5 
13476 13479 13480     5 
13476 13479 13481     5 
13476 13479 13482     5 
13480 13479 13481     5 
13480 13479 13482     5 
13481 13479 13482     5 
13479 13482 13483     5 
13479 13482 13484     5 
13479 13482 13485     5 
13483 13482 13484     5 
13483 13482 13485     5 
13484 13482 13485     5 
13482 13485 13486     5 
13482 13485 13487     5 
13482 13485 13488     5 
13486 13485 13487     5 
13486 13485 13488     5 
13487 13485 13488     5 
13485 13488 13489     5 
13485 13488 13490     5 
13485 13488 13491     5 
13489 13488 13490     5 
13489 13488 13491     5 
13490 13488 13491     5 
13442 13492 13493     5 
13442 13492 13494     5 
13442 13492 13495     5 
13493 13492 13494     5 
13493 13492 13495     5 
13494 13492 13495     5 
13492 13495 13496     5 
13492 13495 13497     5 
13492 13495 13498     5 
13496 13495 13497     5 
13496 13495 13498     5 
13497 13495 13498     5 
13495 13498 13499     5 
13495 13498 13500     5 
13495 13498 13501     5 
13499 13498 13500     5 
13499 13498 13501     5 
13500 13498 13501     5 
13498 13501 13502     5 
13498 13501 13503     5 
13498 13501 13504     5 
13502 13501 13503     5 
13502 13501 13504     5 
13503 13501 13504     5 
13501 13504 13505     5 
13501 13504 13506     5 
13501 13504 13507     5 
13505 13504 13506     5 
13505 13504 13507     5 
13506 13504 13507     5 
13504 13507 13508     5 
13504 13507 13509     5 
13504 13507 13510     5 
13508 13507 13509     5 
13508 13507 13510     5 
13509 13507 13510     5 
13507 13510 13511     5 
13507 13510 13512     5 
13507 13510 13513     5 
13511 13510 13512     5 
13511 13510 13513     5 
13512 13510 13513     5 
13510 13513 13514     5 
13510 13513 13515     5 
13510 13513 13516     5 
13514 13513 13515     5 
13514 13513 13516     5 
13515 13513 13516     5 
13513 13516 13517     5 
13513 13516 13518     5 
13513 13516 13519     5 
13517 13516 13518     5 
13517 13516 13519     5 
13518 13516 13519     5 
13516 13519 13520     5 
13516 13519 13521     5 
13516 13519 13522     5 
13520 13519 13521     5 
13520 13519 13522     5 
13521 13519 13522     5 
13519 13522 13523     5 
13519 13522 13524     5 
13519 13522 13525     5 
13523 13522 13524     5 
13523 13522 13525     5 
13524 13522 13525     5 
13522 13525 13526     5 
13522 13525 13527     5 
13522 13525 13528     5 
13526 13525 13527     5 
13526 13525 13528     5 
13527 13525 13528     5 
13525 13528 13529     5 
13525 13528 13530     5 
13525 13528 13531     5 
13529 13528 13530     5 
13529 13528 13531     5 
13530 13528 13531     5 
13528 13531 13532     5 
13528 13531 13533     5 
13528 13531 13534     5 
13532 13531 13533     5 
13532 13531 13534     5 
13533 13531 13534     5 
13536 13535 13539     5 
13536 13535 13543     5 
13536 13535 13547     5 
13539 13535 13543     5 
13539 13535 13547     5 
13543 13535 13547     5 
13535 13536 13537     5 
13535 13536 13538     5 
13535 13536 13551     5 
13537 13536 13538     5 
13537 13536 13551     5 
13538 13536 13551     5 
13535 13539 13540     5 
13535 13539 13541     5 
13535 13539 13542     5 
13540 13539 13541     5 
13540 13539 13542     5 
13541 13539 13542     5 
13535 13543 13544     5 
13535 13543 13545     5 
13535 13543 13546     5 
13544 13543 13545     5 
13544 13543 13546     5 
13545 13543 13546     5 
13535 13547 13548     5 
13535 13547 13549     5 
13535 13547 13550     5 
13548 13547 13549     5 
13548 13547 13550     5 
13549 13547 13550     5 
13536 13551 13552     5 
13536 13551 13553     5 
13536 13551 13557     5 
13552 13551 13553     5 
13552 13551 13557     5 
13553 13551 13557     5 
13555 13554 13556     5 
13555 13554 13557     5 
13555 13554 13558     5 
13556 13554 13557     5 
13556 13554 13558     5 
13557 13554 13558     5 
13551 13557 13554     5 
13554 13558 13559     5 
13558 13559 13560     5 
13558 13559 13561     5 
13558 13559 13562     5 
13560 13559 13561     5 
13560 13559 13562     5 
13561 13559 13562     5 
13559 13562 13563     5 
13559 13562 13564     5 
13559 13562 13570     5 
13563 13562 13564     5 
13563 13562 13570     5 
13564 13562 13570     5 
13562 13564 13565     5 
13564 13565 13566     5 
13564 13565 13567     5 
13566 13565 13567     5 
13565 13567 13568     5 
13565 13567 13569     5 
13565 13567 13579     5 
13568 13567 13569     5 
13568 13567 13579     5 
13569 13567 13579     5 
13562 13570 13571     5 
13562 13570 13572     5 
13562 13570 13573     5 
13571 13570 13572     5 
13571 13570 13573     5 
13572 13570 13573     5 
13570 13573 13574     5 
13573 13574 13575     5 
13573 13574 13576     5 
13575 13574 13576     5 
13574 13576 13577     5 
13574 13576 13578     5 
13574 13576 13626     5 
13577 13576 13578     5 
13577 13576 13626     5 
13578 13576 13626     5 
13567 13579 13580     5 
13567 13579 13581     5 
13567 13579 13582     5 
13580 13579 13581     5 
13580 13579 13582     5 
13581 13579 13582     5 
13579 13582 13583     5 
13579 13582 13584     5 
13579 13582 13585     5 
13583 13582 13584     5 
13583 13582 13585     5 
13584 13582 13585     5 
13582 13585 13586     5 
13582 13585 13587     5 
13582 13585 13588     5 
13586 13585 13587     5 
13586 13585 13588     5 
13587 13585 13588     5 
13585 13588 13589     5 
13585 13588 13590     5 
13585 13588 13591     5 
13589 13588 13590     5 
13589 13588 13591     5 
13590 13588 13591     5 
13588 13591 13592     5 
13588 13591 13593     5 
13588 13591 13594     5 
13592 13591 13593     5 
13592 13591 13594     5 
13593 13591 13594     5 
13591 13594 13595     5 
13591 13594 13596     5 
13591 13594 13597     5 
13595 13594 13596     5 
13595 13594 13597     5 
13596 13594 13597     5 
13594 13597 13598     5 
13594 13597 13599     5 
13598 13597 13599     5 
13597 13599 13600     5 
13597 13599 13601     5 
13600 13599 13601     5 
13599 13601 13602     5 
13599 13601 13603     5 
13599 13601 13604     5 
13602 13601 13603     5 
13602 13601 13604     5 
13603 13601 13604     5 
13601 13604 13605     5 
13601 13604 13606     5 
13601 13604 13607     5 
13605 13604 13606     5 
13605 13604 13607     5 
13606 13604 13607     5 
13604 13607 13608     5 
13604 13607 13609     5 
13604 13607 13610     5 
13608 13607 13609     5 
13608 13607 13610     5 
13609 13607 13610     5 
13607 13610 13611     5 
13607 13610 13612     5 
13607 13610 13613     5 
13611 13610 13612     5 
13611 13610 13613     5 
13612 13610 13613     5 
13610 13613 13614     5 
13610 13613 13615     5 
13610 13613 13616     5 
13614 13613 13615     5 
13614 13613 13616     5 
13615 13613 13616     5 
13613 13616 13617     5 
13613 13616 13618     5 
13613 13616 13619     5 
13617 13616 13618     5 
13617 13616 13619     5 
13618 13616 13619     5 
13616 13619 13620     5 
13616 13619 13621     5 
13616 13619 13622     5 
13620 13619 13621     5 
13620 13619 13622     5 
13621 13619 13622     5 
13619 13622 13623     5 
13619 13622 13624     5 
13619 13622 13625     5 
13623 13622 13624     5 
13623 13622 13625     5 
13624 13622 13625     5 
13576 13626 13627     5 
13576 13626 13628     5 
13576 13626 13629     5 
13627 13626 13628     5 
13627 13626 13629     5 
13628 13626 13629     5 
13626 13629 13630     5 
13626 13629 13631     5 
13626 13629 13632     5 
13630 13629 13631     5 
13630 13629 13632     5 
13631 13629 13632     5 
13629 13632 13633     5 
13629 13632 13634     5 
13629 13632 13635     5 
13633 13632 13634     5 
13633 13632 13635     5 
13634 13632 13635     5 
13632 13635 13636     5 
13632 13635 13637     5 
13632 13635 13638     5 
13636 13635 13637     5 
13636 13635 13638     5 
13637 13635 13638     5 
13635 13638 13639     5 
13635 13638 13640     5 
13635 13638 13641     5 
13639 13638 13640     5 
13639 13638 13641     5 
13640 13638 13641     5 
13638 13641 13642     5 
13638 13641 13643     5 
13638 13641 13644     5 
13642 13641 13643     5 
13642 13641 13644     5 
13643 13641 13644     5 
13641 13644 13645     5 
13641 13644 13646     5 
13641 13644 13647     5 
13645 13644 13646     5 
13645 13644 13647     5 
13646 13644 13647     5 
13644 13647 13648     5 
13644 13647 13649     5 
13644 13647 13650     5 
13648 13647 13649     5 
13648 13647 13650     5 
13649 13647 13650     5 
13647 13650 13651     5 
13647 13650 13652     5 
13647 13650 13653     5 
13651 13650 13652     5 
13651 13650 13653     5 
13652 13650 13653     5 
13650 13653 13654     5 
13650 13653 13655     5 
13650 13653 13656     5 
13654 13653 13655     5 
13654 13653 13656     5 
13655 13653 13656     5 
13653 13656 13657     5 
13653 13656 13658     5 
13653 13656 13659     5 
13657 13656 13658     5 
13657 13656 13659     5 
13658 13656 13659     5 
13656 13659 13660     5 
13656 13659 13661     5 
13656 13659 13662     5 
13660 13659 13661     5 
13660 13659 13662     5 
13661 13659 13662     5 
13659 13662 13663     5 
13659 13662 13664     5 
13659 13662 13665     5 
13663 13662 13664     5 
13663 13662 13665     5 
13664 13662 13665     5 
13662 13665 13666     5 
13662 13665 13667     5 
13662 13665 13668     5 
13666 13665 13667     5 
13666 13665 13668     5 
13667 13665 13668     5 
13670 13669 13673     5 
13670 13669 13677     5 
13670 13669 13681     5 
13673 13669 13677     5 
13673 13669 13681     5 
13677 13669 13681     5 
13669 13670 13671     5 
13669 13670 13672     5 
13669 13670 13685     5 
13671 13670 13672     5 
13671 13670 13685     5 
13672 13670 13685     5 
13669 13673 13674     5 
13669 13673 13675     5 
13669 13673 13676     5 
13674 13673 13675     5 
13674 13673 13676     5 
13675 13673 13676     5 
13669 13677 13678     5 
13669 13677 13679     5 
13669 13677 13680     5 
13678 13677 13679     5 
13678 13677 13680     5 
13679 13677 13680     5 
13669 13681 13682     5 
13669 13681 13683     5 
13669 13681 13684     5 
13682 13681 13683     5 
13682 13681 13684     5 
13683 13681 13684     5 
13670 13685 13686     5 
13670 13685 13687     5 
13670 13685 13691     5 
13686 13685 13687     5 
13686 13685 13691     5 
13687 13685 13691     5 
13689 13688 13690     5 
13689 13688 13691     5 
13689 13688 13692     5 
13690 13688 13691     5 
13690 13688 13692     5 
13691 13688 13692     5 
13685 13691 13688     5 
13688 13692 13693     5 
13692 13693 13694     5 
13692 13693 13695     5 
13692 13693 13696     5 
13694 13693 13695     5 
13694 13693 13696     5 
13695 13693 13696     5 
13693 13696 13697     5 
13693 13696 13698     5 
13693 13696 13704     5 
13697 13696 13698     5 
13697 13696 13704     5 
13698 13696 13704     5 
13696 13698 13699     5 
13698 13699 13700     5 
13698 13699 13701     5 
13700 13699 13701     5 
13699 13701 13702     5 
13699 13701 13703     5 
13699 13701 13713     5 
13702 13701 13703     5 
13702 13701 13713     5 
13703 13701 13713     5 
13696 13704 13705     5 
13696 13704 13706     5 
13696 13704 13707     5 
13705 13704 13706     5 
13705 13704 13707     5 
13706 13704 13707     5 
13704 13707 13708     5 
13707 13708 13709     5 
13707 13708 13710     5 
13709 13708 13710     5 
13708 13710 13711     5 
13708 13710 13712     5 
13708 13710 13760     5 
13711 13710 13712     5 
13711 13710 13760     5 
13712 13710 13760     5 
13701 13713 13714     5 
13701 13713 13715     5 
13701 13713 13716     5 
13714 13713 13715     5 
13714 13713 13716     5 
13715 13713 13716     5 
13713 13716 13717     5 
13713 13716 13718     5 
13713 13716 13719     5 
13717 13716 13718     5 
13717 13716 13719     5 
13718 13716 13719     5 
13716 13719 13720     5 
13716 13719 13721     5 
13716 13719 13722     5 
13720 13719 13721     5 
13720 13719 13722     5 
13721 13719 13722     5 
13719 13722 13723     5 
13719 13722 13724     5 
13719 13722 13725     5 
13723 13722 13724     5 
13723 13722 13725     5 
13724 13722 13725     5 
13722 13725 13726     5 
13722 13725 13727     5 
13722 13725 13728     5 
13726 13725 13727     5 
13726 13725 13728     5 
13727 13725 13728     5 
13725 13728 13729     5 
13725 13728 13730     5 
13725 13728 13731     5 
13729 13728 13730     5 
13729 13728 13731     5 
13730 13728 13731     5 
13728 13731 13732     5 
13728 13731 13733     5 
13732 13731 13733     5 
13731 13733 13734     5 
13731 13733 13735     5 
13734 13733 13735     5 
13733 13735 13736     5 
13733 13735 13737     5 
13733 13735 13738     5 
13736 13735 13737     5 
13736 13735 13738     5 
13737 13735 13738     5 
13735 13738 13739     5 
13735 13738 13740     5 
13735 13738 13741     5 
13739 13738 13740     5 
13739 13738 13741     5 
13740 13738 13741     5 
13738 13741 13742     5 
13738 13741 13743     5 
13738 13741 13744     5 
13742 13741 13743     5 
13742 13741 13744     5 
13743 13741 13744     5 
13741 13744 13745     5 
13741 13744 13746     5 
13741 13744 13747     5 
13745 13744 13746     5 
13745 13744 13747     5 
13746 13744 13747     5 
13744 13747 13748     5 
13744 13747 13749     5 
13744 13747 13750     5 
13748 13747 13749     5 
13748 13747 13750     5 
13749 13747 13750     5 
13747 13750 13751     5 
13747 13750 13752     5 
13747 13750 13753     5 
13751 13750 13752     5 
13751 13750 13753     5 
13752 13750 13753     5 
13750 13753 13754     5 
13750 13753 13755     5 
13750 13753 13756     5 
13754 13753 13755     5 
13754 13753 13756     5 
13755 13753 13756     5 
13753 13756 13757     5 
13753 13756 13758     5 
13753 13756 13759     5 
13757 13756 13758     5 
13757 13756 13759     5 
13758 13756 13759     5 
13710 13760 13761     5 
13710 13760 13762     5 
13710 13760 13763     5 
13761 13760 13762     5 
13761 13760 13763     5 
13762 13760 13763     5 
13760 13763 13764     5 
13760 13763 13765     5 
13760 13763 13766     5 
13764 13763 13765     5 
13764 13763 13766     5 
13765 13763 13766     5 
13763 13766 13767     5 
13763 13766 13768     5 
13763 13766 13769     5 
13767 13766 13768     5 
13767 13766 13769     5 
13768 13766 13769     5 
13766 13769 13770     5 
13766 13769 13771     5 
13766 13769 13772     5 
13770 13769 13771     5 
13770 13769 13772     5 
13771 13769 13772     5 
13769 13772 13773     5 
13769 13772 13774     5 
13769 13772 13775     5 
13773 13772 13774     5 
13773 13772 13775     5 
13774 13772 13775     5 
13772 13775 13776     5 
13772 13775 13777     5 
13772 13775 13778     5 
13776 13775 13777     5 
13776 13775 13778     5 
13777 13775 13778     5 
13775 13778 13779     5 
13775 13778 13780     5 
13775 13778 13781     5 
13779 13778 13780     5 
13779 13778 13781     5 
13780 13778 13781     5 
13778 13781 13782     5 
13778 13781 13783     5 
13778 13781 13784     5 
13782 13781 13783     5 
13782 13781 13784     5 
13783 13781 13784     5 
13781 13784 13785     5 
13781 13784 13786     5 
13781 13784 13787     5 
13785 13784 13786     5 
13785 13784 13787     5 
13786 13784 13787     5 
13784 13787 13788     5 
13784 13787 13789     5 
13784 13787 13790     5 
13788 13787 13789     5 
13788 13787 13790     5 
13789 13787 13790     5 
13787 13790 13791     5 
13787 13790 13792     5 
13787 13790 13793     5 
13791 13790 13792     5 
13791 13790 13793     5 
13792 13790 13793     5 
13790 13793 13794     5 
13790 13793 13795     5 
13790 13793 13796     5 
13794 13793 13795     5 
13794 13793 13796     5 
13795 13793 13796     5 
13793 13796 13797     5 
13793 13796 13798     5 
13793 13796 13799     5 
13797 13796 13798     5 
13797 13796 13799     5 
13798 13796 13799     5 
13796 13799 13800     5 
13796 13799 13801     5 
13796 13799 13802     5 
13800 13799 13801     5 
13800 13799 13802     5 
13801 13799 13802     5 
13804 13803 13807     5 
13804 13803 13811     5 
13804 13803 13815     5 
13807 13803 13811     5 
13807 13803 13815     5 
13811 13803 13815     5 
13803 13804 13805     5 
13803 13804 13806     5 
13803 13804 13819     5 
13805 13804 13806     5 
13805 13804 13819     5 
13806 13804 13819     5 
13803 13807 13808     5 
13803 13807 13809     5 
13803 13807 13810     5 
13808 13807 13809     5 
13808 13807 13810     5 
13809 13807 13810     5 
13803 13811 13812     5 
13803 13811 13813     5 
13803 13811 13814     5 
13812 13811 13813     5 
13812 13811 13814     5 
13813 13811 13814     5 
13803 13815 13816     5 
13803 13815 13817     5 
13803 13815 13818     5 
13816 13815 13817     5 
13816 13815 13818     5 
13817 13815 13818     5 
13804 13819 13820     5 
13804 13819 13821     5 
13804 13819 13825     5 
13820 13819 13821     5 
13820 13819 13825     5 
13821 13819 13825     5 
13823 13822 13824     5 
13823 13822 13825     5 
13823 13822 13826     5 
13824 13822 13825     5 
13824 13822 13826     5 
13825 13822 13826     5 
13819 13825 13822     5 
13822 13826 13827     5 
13826 13827 13828     5 
13826 13827 13829     5 
13826 13827 13830     5 
13828 13827 13829     5 
13828 13827 13830     5 
13829 13827 13830     5 
13827 13830 13831     5 
13827 13830 13832     5 
13827 13830 13838     5 
13831 13830 13832     5 
13831 13830 13838     5 
13832 13830 13838     5 
13830 13832 13833     5 
13832 13833 13834     5 
13832 13833 13835     5 
13834 13833 13835     5 
13833 13835 13836     5 
13833 13835 13837     5 
13833 13835 13847     5 
13836 13835 13837     5 
13836 13835 13847     5 
13837 13835 13847     5 
13830 13838 13839     5 
13830 13838 13840     5 
13830 13838 13841     5 
13839 13838 13840     5 
13839 13838 13841     5 
13840 13838 13841     5 
13838 13841 13842     5 
13841 13842 13843     5 
13841 13842 13844     5 
13843 13842 13844     5 
13842 13844 13845     5 
13842 13844 13846     5 
13842 13844 13894     5 
13845 13844 13846     5 
13845 13844 13894     5 
13846 13844 13894     5 
13835 13847 13848     5 
13835 13847 13849     5 
13835 13847 13850     5 
13848 13847 13849     5 
13848 13847 13850     5 
13849 13847 13850     5 
13847 13850 13851     5 
13847 13850 13852     5 
13847 13850 13853     5 
13851 13850 13852     5 
13851 13850 13853     5 
13852 13850 13853     5 
13850 13853 13854     5 
13850 13853 13855     5 
13850 13853 13856     5 
13854 13853 13855     5 
13854 13853 13856     5 
13855 13853 13856     5 
13853 13856 13857     5 
13853 13856 13858     5 
13853 13856 13859     5 
13857 13856 13858     5 
13857 13856 13859     5 
13858 13856 13859     5 
13856 13859 13860     5 
13856 13859 13861     5 
13856 13859 13862     5 
13860 13859 13861     5 
13860 13859 13862     5 
13861 13859 13862     5 
13859 13862 13863     5 
13859 13862 13864     5 
13859 13862 13865     5 
13863 13862 13864     5 
13863 13862 13865     5 
13864 13862 13865     5 
13862 13865 13866     5 
13862 13865 13867     5 
13866 13865 13867     5 
13865 13867 13868     5 
13865 13867 13869     5 
13868 13867 13869     5 
13867 13869 13870     5 
13867 13869 13871     5 
13867 13869 13872     5 
13870 13869 13871     5 
13870 13869 13872     5 
13871 13869 13872     5 
13869 13872 13873     5 
13869 13872 13874     5 
13869 13872 13875     5 
13873 13872 13874     5 
13873 13872 13875     5 
13874 13872 13875     5 
13872 13875 13876     5 
13872 13875 13877     5 
13872 13875 13878     5 
13876 13875 13877     5 
13876 13875 13878     5 
13877 13875 13878     5 
13875 13878 13879     5 
13875 13878 13880     5 
13875 13878 13881     5 
13879 13878 13880     5 
13879 13878 13881     5 
13880 13878 13881     5 
13878 13881 13882     5 
13878 13881 13883     5 
13878 13881 13884     5 
13882 13881 13883     5 
13882 13881 13884     5 
13883 13881 13884     5 
13881 13884 13885     5 
13881 13884 13886     5 
13881 13884 13887     5 
13885 13884 13886     5 
13885 13884 13887     5 
13886 13884 13887     5 
13884 13887 13888     5 
13884 13887 13889     5 
13884 13887 13890     5 
13888 13887 13889     5 
13888 13887 13890     5 
13889 13887 13890     5 
13887 13890 13891     5 
13887 13890 13892     5 
13887 13890 13893     5 
13891 13890 13892     5 
13891 13890 13893     5 
13892 13890 13893     5 
13844 13894 13895     5 
13844 13894 13896     5 
13844 13894 13897     5 
13895 13894 13896     5 
13895 13894 13897     5 
13896 13894 13897     5 
13894 13897 13898     5 
13894 13897 13899     5 
13894 13897 13900     5 
13898 13897 13899     5 
13898 13897 13900     5 
13899 13897 13900     5 
13897 13900 13901     5 
13897 13900 13902     5 
13897 13900 13903     5 
13901 13900 13902     5 
13901 13900 13903     5 
13902 13900 13903     5 
13900 13903 13904     5 
13900 13903 13905     5 
13900 13903 13906     5 
13904 13903 13905     5 
13904 13903 13906     5 
13905 13903 13906     5 
13903 13906 13907     5 
13903 13906 13908     5 
13903 13906 13909     5 
13907 13906 13908     5 
13907 13906 13909     5 
13908 13906 13909     5 
13906 13909 13910     5 
13906 13909 13911     5 
13906 13909 13912     5 
13910 13909 13911     5 
13910 13909 13912     5 
13911 13909 13912     5 
13909 13912 13913     5 
13909 13912 13914     5 
13909 13912 13915     5 
13913 13912 13914     5 
13913 13912 13915     5 
13914 13912 13915     5 
13912 13915 13916     5 
13912 13915 13917     5 
13912 13915 13918     5 
13916 13915 13917     5 
13916 13915 13918     5 
13917 13915 13918     5 
13915 13918 13919     5 
13915 13918 13920     5 
13915 13918 13921     5 
13919 13918 13920     5 
13919 13918 13921     5 
13920 13918 13921     5 
13918 13921 13922     5 
13918 13921 13923     5 
13918 13921 13924     5 
13922 13921 13923     5 
13922 13921 13924     5 
13923 13921 13924     5 
13921 13924 13925     5 
13921 13924 13926     5 
13921 13924 13927     5 
13925 13924 13926     5 
13925 13924 13927     5 
13926 13924 13927     5 
13924 13927 13928     5 
13924 13927 13929     5 
13924 13927 13930     5 
13928 13927 13929     5 
13928 13927 13930     5 
13929 13927 13930     5 
13927 13930 13931     5 
13927 13930 13932     5 
13927 13930 13933     5 
13931 13930 13932     5 
13931 13930 13933     5 
13932 13930 13933     5 
13930 13933 13934     5 
13930 13933 13935     5 
13930 13933 13936     5 
13934 13933 13935     5 
13934 13933 13936     5 
13935 13933 13936     5 
13938 13937 13941     5 
13938 13937 13945     5 
13938 13937 13949     5 
13941 13937 13945     5 
13941 13937 13949     5 
13945 13937 13949     5 
13937 13938 13939     5 
13937 13938 13940     5 
13937 13938 13953     5 
13939 13938 13940     5 
13939 13938 13953     5 
13940 13938 13953     5 
13937 13941 13942     5 
13937 13941 13943     5 
13937 13941 13944     5 
13942 13941 13943     5 
13942 13941 13944     5 
13943 13941 13944     5 
13937 13945 13946     5 
13937 13945 13947     5 
13937 13945 13948     5 
13946 13945 13947     5 
13946 13945 13948     5 
13947 13945 13948     5 
13937 13949 13950     5 
13937 13949 13951     5 
13937 13949 13952     5 
13950 13949 13951     5 
13950 13949 13952     5 
13951 13949 13952     5 
13938 13953 13954     5 
13938 13953 13955     5 
13938 13953 13959     5 
13954 13953 13955     5 
13954 13953 13959     5 
13955 13953 13959     5 
13957 13956 13958     5 
13957 13956 13959     5 
13957 13956 13960     5 
13958 13956 13959     5 
13958 13956 13960     5 
13959 13956 13960     5 
13953 13959 13956     5 
13956 13960 13961     5 
13960 13961 13962     5 
13960 13961 13963     5 
13960 13961 13964     5 
13962 13961 13963     5 
13962 13961 13964     5 
13963 13961 13964     5 
13961 13964 13965     5 
13961 13964 13966     5 
13961 13964 13972     5 
13965 13964 13966     5 
13965 13964 13972     5 
13966 13964 13972     5 
13964 13966 13967     5 
13966 13967 13968     5 
13966 13967 13969     5 
13968 13967 13969     5 
13967 13969 13970     5 
13967 13969 13971     5 
13967 13969 13981     5 
13970 13969 13971     5 
13970 13969 13981     5 
13971 13969 13981     5 
13964 13972 13973     5 
13964 13972 13974     5 
13964 13972 13975     5 
13973 13972 13974     5 
13973 13972 13975     5 
13974 13972 13975     5 
13972 13975 13976     5 
13975 13976 13977     5 
13975 13976 13978     5 
13977 13976 13978     5 
13976 13978 13979     5 
13976 13978 13980     5 
13976 13978 14028     5 
13979 13978 13980     5 
13979 13978 14028     5 
13980 13978 14028     5 
13969 13981 13982     5 
13969 13981 13983     5 
13969 13981 13984     5 
13982 13981 13983     5 
13982 13981 13984     5 
13983 13981 13984     5 
13981 13984 13985     5 
13981 13984 13986     5 
13981 13984 13987     5 
13985 13984 13986     5 
13985 13984 13987     5 
13986 13984 13987     5 
13984 13987 13988     5 
13984 13987 13989     5 
13984 13987 13990     5 
13988 13987 13989     5 
13988 13987 13990     5 
13989 13987 13990     5 
13987 13990 13991     5 
13987 13990 13992     5 
13987 13990 13993     5 
13991 13990 13992     5 
13991 13990 13993     5 
13992 13990 13993     5 
13990 13993 13994     5 
13990 13993 13995     5 
13990 13993 13996     5 
13994 13993 13995     5 
13994 13993 13996     5 
13995 13993 13996     5 
13993 13996 13997     5 
13993 13996 13998     5 
13993 13996 13999     5 
13997 13996 13998     5 
13997 13996 13999     5 
13998 13996 13999     5 
13996 13999 14000     5 
13996 13999 14001     5 
14000 13999 14001     5 
13999 14001 14002     5 
13999 14001 14003     5 
14002 14001 14003     5 
14001 14003 14004     5 
14001 14003 14005     5 
14001 14003 14006     5 
14004 14003 14005     5 
14004 14003 14006     5 
14005 14003 14006     5 
14003 14006 14007     5 
14003 14006 14008     5 
14003 14006 14009     5 
14007 14006 14008     5 
14007 14006 14009     5 
14008 14006 14009     5 
14006 14009 14010     5 
14006 14009 14011     5 
14006 14009 14012     5 
14010 14009 14011     5 
14010 14009 14012     5 
14011 14009 14012     5 
14009 14012 14013     5 
14009 14012 14014     5 
14009 14012 14015     5 
14013 14012 14014     5 
14013 14012 14015     5 
14014 14012 14015     5 
14012 14015 14016     5 
14012 14015 14017     5 
14012 14015 14018     5 
14016 14015 14017     5 
14016 14015 14018     5 
14017 14015 14018     5 
14015 14018 14019     5 
14015 14018 14020     5 
14015 14018 14021     5 
14019 14018 14020     5 
14019 14018 14021     5 
14020 14018 14021     5 
14018 14021 14022     5 
14018 14021 14023     5 
14018 14021 14024     5 
14022 14021 14023     5 
14022 14021 14024     5 
14023 14021 14024     5 
14021 14024 14025     5 
14021 14024 14026     5 
14021 14024 14027     5 
14025 14024 14026     5 
14025 14024 14027     5 
14026 14024 14027     5 
13978 14028 14029     5 
13978 14028 14030     5 
13978 14028 14031     5 
14029 14028 14030     5 
14029 14028 14031     5 
14030 14028 14031     5 
14028 14031 14032     5 
14028 14031 14033     5 
14028 14031 14034     5 
14032 14031 14033     5 
14032 14031 14034     5 
14033 14031 14034     5 
14031 14034 14035     5 
14031 14034 14036     5 
14031 14034 14037     5 
14035 14034 14036     5 
14035 14034 14037     5 
14036 14034 14037     5 
14034 14037 14038     5 
14034 14037 14039     5 
14034 14037 14040     5 
14038 14037 14039     5 
14038 14037 14040     5 
14039 14037 14040     5 
14037 14040 14041     5 
14037 14040 14042     5 
14037 14040 14043     5 
14041 14040 14042     5 
14041 14040 14043     5 
14042 14040 14043     5 
14040 14043 14044     5 
14040 14043 14045     5 
14040 14043 14046     5 
14044 14043 14045     5 
14044 14043 14046     5 
14045 14043 14046     5 
14043 14046 14047     5 
14043 14046 14048     5 
14043 14046 14049     5 
14047 14046 14048     5 
14047 14046 14049     5 
14048 14046 14049     5 
14046 14049 14050     5 
14046 14049 14051     5 
14046 14049 14052     5 
14050 14049 14051     5 
14050 14049 14052     5 
14051 14049 14052     5 
14049 14052 14053     5 
14049 14052 14054     5 
14049 14052 14055     5 
14053 14052 14054     5 
14053 14052 14055     5 
14054 14052 14055     5 
14052 14055 14056     5 
14052 14055 14057     5 
14052 14055 14058     5 
14056 14055 14057     5 
14056 14055 14058     5 
14057 14055 14058     5 
14055 14058 14059     5 
14055 14058 14060     5 
14055 14058 14061     5 
14059 14058 14060     5 
14059 14058 14061     5 
14060 14058 14061     5 
14058 14061 14062     5 
14058 14061 14063     5 
14058 14061 14064     5 
14062 14061 14063     5 
14062 14061 14064     5 
14063 14061 14064     5 
14061 14064 14065     5 
14061 14064 14066     5 
14061 14064 14067     5 
14065 14064 14066     5 
14065 14064 14067     5 
14066 14064 14067     5 
14064 14067 14068     5 
14064 14067 14069     5 
14064 14067 14070     5 
14068 14067 14069     5 
14068 14067 14070     5 
14069 14067 14070     5 
14072 14071 14075     5 
14072 14071 14079     5 
14072 14071 14083     5 
14075 14071 14079     5 
14075 14071 14083     5 
14079 14071 14083     5 
14071 14072 14073     5 
14071 14072 14074     5 
14071 14072 14087     5 
14073 14072 14074     5 
14073 14072 14087     5 
14074 14072 14087     5 
14071 14075 14076     5 
14071 14075 14077     5 
14071 14075 14078     5 
14076 14075 14077     5 
14076 14075 14078     5 
14077 14075 14078     5 
14071 14079 14080     5 
14071 14079 14081     5 
14071 14079 14082     5 
14080 14079 14081     5 
14080 14079 14082     5 
14081 14079 14082     5 
14071 14083 14084     5 
14071 14083 14085     5 
14071 14083 14086     5 
14084 14083 14085     5 
14084 14083 14086     5 
14085 14083 14086     5 
14072 14087 14088     5 
14072 14087 14089     5 
14072 14087 14093     5 
14088 14087 14089     5 
14088 14087 14093     5 
14089 14087 14093     5 
14091 14090 14092     5 
14091 14090 14093     5 
14091 14090 14094     5 
14092 14090 14093     5 
14092 14090 14094     5 
14093 14090 14094     5 
14087 14093 14090     5 
14090 14094 14095     5 
14094 14095 14096     5 
14094 14095 14097     5 
14094 14095 14098     5 
14096 14095 14097     5 
14096 14095 14098     5 
14097 14095 14098     5 
14095 14098 14099     5 
14095 14098 14100     5 
14095 14098 14106     5 
14099 14098 14100     5 
14099 14098 14106     5 
14100 14098 14106     5 
14098 14100 14101     5 
14100 14101 14102     5 
14100 14101 14103     5 
14102 14101 14103     5 
14101 14103 14104     5 
14101 14103 14105     5 
14101 14103 14115     5 
14104 14103 14105     5 
14104 14103 14115     5 
14105 14103 14115     5 
14098 14106 14107     5 
14098 14106 14108     5 
14098 14106 14109     5 
14107 14106 14108     5 
14107 14106 14109     5 
14108 14106 14109     5 
14106 14109 14110     5 
14109 14110 14111     5 
14109 14110 14112     5 
14111 14110 14112     5 
14110 14112 14113     5 
14110 14112 14114     5 
14110 14112 14162     5 
14113 14112 14114     5 
14113 14112 14162     5 
14114 14112 14162     5 
14103 14115 14116     5 
14103 14115 14117     5 
14103 14115 14118     5 
14116 14115 14117     5 
14116 14115 14118     5 
14117 14115 14118     5 
14115 14118 14119     5 
14115 14118 14120     5 
14115 14118 14121     5 
14119 14118 14120     5 
14119 14118 14121     5 
14120 14118 14121     5 
14118 14121 14122     5 
14118 14121 14123     5 
14118 14121 14124     5 
14122 14121 14123     5 
14122 14121 14124     5 
14123 14121 14124     5 
14121 14124 14125     5 
14121 14124 14126     5 
14121 14124 14127     5 
14125 14124 14126     5 
14125 14124 14127     5 
14126 14124 14127     5 
14124 14127 14128     5 
14124 14127 14129     5 
14124 14127 14130     5 
14128 14127 14129     5 
14128 14127 14130     5 
14129 14127 14130     5 
14127 14130 14131     5 
14127 14130 14132     5 
14127 14130 14133     5 
14131 14130 14132     5 
14131 14130 14133     5 
14132 14130 14133     5 
14130 14133 14134     5 
14130 14133 14135     5 
14134 14133 14135     5 
14133 14135 14136     5 
14133 14135 14137     5 
14136 14135 14137     5 
14135 14137 14138     5 
14135 14137 14139     5 
14135 14137 14140     5 
14138 14137 14139     5 
14138 14137 14140     5 
14139 14137 14140     5 
14137 14140 14141     5 
14137 14140 14142     5 
14137 14140 14143     5 
14141 14140 14142     5 
14141 14140 14143     5 
14142 14140 14143     5 
14140 14143 14144     5 
14140 14143 14145     5 
14140 14143 14146     5 
14144 14143 14145     5 
14144 14143 14146     5 
14145 14143 14146     5 
14143 14146 14147     5 
14143 14146 14148     5 
14143 14146 14149     5 
14147 14146 14148     5 
14147 14146 14149     5 
14148 14146 14149     5 
14146 14149 14150     5 
14146 14149 14151     5 
14146 14149 14152     5 
14150 14149 14151     5 
14150 14149 14152     5 
14151 14149 14152     5 
14149 14152 14153     5 
14149 14152 14154     5 
14149 14152 14155     5 
14153 14152 14154     5 
14153 14152 14155     5 
14154 14152 14155     5 
14152 14155 14156     5 
14152 14155 14157     5 
14152 14155 14158     5 
14156 14155 14157     5 
14156 14155 14158     5 
14157 14155 14158     5 
14155 14158 14159     5 
14155 14158 14160     5 
14155 14158 14161     5 
14159 14158 14160     5 
14159 14158 14161     5 
14160 14158 14161     5 
14112 14162 14163     5 
14112 14162 14164     5 
14112 14162 14165     5 
14163 14162 14164     5 
14163 14162 14165     5 
14164 14162 14165     5 
14162 14165 14166     5 
14162 14165 14167     5 
14162 14165 14168     5 
14166 14165 14167     5 
14166 14165 14168     5 
14167 14165 14168     5 
14165 14168 14169     5 
14165 14168 14170     5 
14165 14168 14171     5 
14169 14168 14170     5 
14169 14168 14171     5 
14170 14168 14171     5 
14168 14171 14172     5 
14168 14171 14173     5 
14168 14171 14174     5 
14172 14171 14173     5 
14172 14171 14174     5 
14173 14171 14174     5 
14171 14174 14175     5 
14171 14174 14176     5 
14171 14174 14177     5 
14175 14174 14176     5 
14175 14174 14177     5 
14176 14174 14177     5 
14174 14177 14178     5 
14174 14177 14179     5 
14174 14177 14180     5 
14178 14177 14179     5 
14178 14177 14180     5 
14179 14177 14180     5 
14177 14180 14181     5 
14177 14180 14182     5 
14177 14180 14183     5 
14181 14180 14182     5 
14181 14180 14183     5 
14182 14180 14183     5 
14180 14183 14184     5 
14180 14183 14185     5 
14180 14183 14186     5 
14184 14183 14185     5 
14184 14183 14186     5 
14185 14183 14186     5 
14183 14186 14187     5 
14183 14186 14188     5 
14183 14186 14189     5 
14187 14186 14188     5 
14187 14186 14189     5 
14188 14186 14189     5 
14186 14189 14190     5 
14186 14189 14191     5 
14186 14189 14192     5 
14190 14189 14191     5 
14190 14189 14192     5 
14191 14189 14192     5 
14189 14192 14193     5 
14189 14192 14194     5 
14189 14192 14195     5 
14193 14192 14194     5 
14193 14192 14195     5 
14194 14192 14195     5 
14192 14195 14196     5 
14192 14195 14197     5 
14192 14195 14198     5 
14196 14195 14197     5 
14196 14195 14198     5 
14197 14195 14198     5 
14195 14198 14199     5 
14195 14198 14200     5 
14195 14198 14201     5 
14199 14198 14200     5 
14199 14198 14201     5 
14200 14198 14201     5 
14198 14201 14202     5 
14198 14201 14203     5 
14198 14201 14204     5 
14202 14201 14203     5 
14202 14201 14204     5 
14203 14201 14204     5 
14206 14205 14209     5 
14206 14205 14213     5 
14206 14205 14217     5 
14209 14205 14213     5 
14209 14205 14217     5 
14213 14205 14217     5 
14205 14206 14207     5 
14205 14206 14208     5 
14205 14206 14221     5 
14207 14206 14208     5 
14207 14206 14221     5 
14208 14206 14221     5 
14205 14209 14210     5 
14205 14209 14211     5 
14205 14209 14212     5 
14210 14209 14211     5 
14210 14209 14212     5 
14211 14209 14212     5 
14205 14213 14214     5 
14205 14213 14215     5 
14205 14213 14216     5 
14214 14213 14215     5 
14214 14213 14216     5 
14215 14213 14216     5 
14205 14217 14218     5 
14205 14217 14219     5 
14205 14217 14220     5 
14218 14217 14219     5 
14218 14217 14220     5 
14219 14217 14220     5 
14206 14221 14222     5 
14206 14221 14223     5 
14206 14221 14227     5 
14222 14221 14223     5 
14222 14221 14227     5 
14223 14221 14227     5 
14225 14224 14226     5 
14225 14224 14227     5 
14225 14224 14228     5 
14226 14224 14227     5 
14226 14224 14228     5 
14227 14224 14228     5 
14221 14227 14224     5 
14224 14228 14229     5 
14228 14229 14230     5 
14228 14229 14231     5 
14228 14229 14232     5 
14230 14229 14231     5 
14230 14229 14232     5 
14231 14229 14232     5 
14229 14232 14233     5 
14229 14232 14234     5 
14229 14232 14240     5 
14233 14232 14234     5 
14233 14232 14240     5 
14234 14232 14240     5 
14232 14234 14235     5 
14234 14235 14236     5 
14234 14235 14237     5 
14236 14235 14237     5 
14235 14237 14238     5 
14235 14237 14239     5 
14235 14237 14249     5 
14238 14237 14239     5 
14238 14237 14249     5 
14239 14237 14249     5 
14232 14240 14241     5 
14232 14240 14242     5 
14232 14240 14243     5 
14241 14240 14242     5 
14241 14240 14243     5 
14242 14240 14243     5 
14240 14243 14244     5 
14243 14244 14245     5 
14243 14244 14246     5 
14245 14244 14246     5 
14244 14246 14247     5 
14244 14246 14248     5 
14244 14246 14296     5 
14247 14246 14248     5 
14247 14246 14296     5 
14248 14246 14296     5 
14237 14249 14250     5 
14237 14249 14251     5 
14237 14249 14252     5 
14250 14249 14251     5 
14250 14249 14252     5 
14251 14249 14252     5 
14249 14252 14253     5 
14249 14252 14254     5 
14249 14252 14255     5 
14253 14252 14254     5 
14253 14252 14255     5 
14254 14252 14255     5 
14252 14255 14256     5 
14252 14255 14257     5 
14252 14255 14258     5 
14256 14255 14257     5 
14256 14255 14258     5 
14257 14255 14258     5 
14255 14258 14259     5 
14255 14258 14260     5 
14255 14258 14261     5 
14259 14258 14260     5 
14259 14258 14261     5 
14260 14258 14261     5 
14258 14261 14262     5 
14258 14261 14263     5 
14258 14261 14264     5 
14262 14261 14263     5 
14262 14261 14264     5 
14263 14261 14264     5 
14261 14264 14265     5 
14261 14264 14266     5 
14261 14264 14267     5 
14265 14264 14266     5 
14265 14264 14267     5 
14266 14264 14267     5 
14264 14267 14268     5 
14264 14267 14269     5 
14268 14267 14269     5 
14267 14269 14270     5 
14267 14269 14271     5 
14270 14269 14271     5 
14269 14271 14272     5 
14269 14271 14273     5 
14269 14271 14274     5 
14272 14271 14273     5 
14272 14271 14274     5 
14273 14271 14274     5 
14271 14274 14275     5 
14271 14274 14276     5 
14271 14274 14277     5 
14275 14274 14276     5 
14275 14274 14277     5 
14276 14274 14277     5 
14274 14277 14278     5 
14274 14277 14279     5 
14274 14277 14280     5 
14278 14277 14279     5 
14278 14277 14280     5 
14279 14277 14280     5 
14277 14280 14281     5 
14277 14280 14282     5 
14277 14280 14283     5 
14281 14280 14282     5 
14281 14280 14283     5 
14282 14280 14283     5 
14280 14283 14284     5 
14280 14283 14285     5 
14280 14283 14286     5 
14284 14283 14285     5 
14284 14283 14286     5 
14285 14283 14286     5 
14283 14286 14287     5 
14283 14286 14288     5 
14283 14286 14289     5 
14287 14286 14288     5 
14287 14286 14289     5 
14288 14286 14289     5 
14286 14289 14290     5 
14286 14289 14291     5 
14286 14289 14292     5 
14290 14289 14291     5 
14290 14289 14292     5 
14291 14289 14292     5 
14289 14292 14293     5 
14289 14292 14294     5 
14289 14292 14295     5 
14293 14292 14294     5 
14293 14292 14295     5 
14294 14292 14295     5 
14246 14296 14297     5 
14246 14296 14298     5 
14246 14296 14299     5 
14297 14296 14298     5 
14297 14296 14299     5 
14298 14296 14299     5 
14296 14299 14300     5 
14296 14299 14301     5 
14296 14299 14302     5 
14300 14299 14301     5 
14300 14299 14302     5 
14301 14299 14302     5 
14299 14302 14303     5 
14299 14302 14304     5 
14299 14302 14305     5 
14303 14302 14304     5 
14303 14302 14305     5 
14304 14302 14305     5 
14302 14305 14306     5 
14302 14305 14307     5 
14302 14305 14308     5 
14306 14305 14307     5 
14306 14305 14308     5 
14307 14305 14308     5 
14305 14308 14309     5 
14305 14308 14310     5 
14305 14308 14311     5 
14309 14308 14310     5 
14309 14308 14311     5 
14310 14308 14311     5 
14308 14311 14312     5 
14308 14311 14313     5 
14308 14311 14314     5 
14312 14311 14313     5 
14312 14311 14314     5 
14313 14311 14314     5 
14311 14314 14315     5 
14311 14314 14316     5 
14311 14314 14317     5 
14315 14314 14316     5 
14315 14314 14317     5 
14316 14314 14317     5 
14314 14317 14318     5 
14314 14317 14319     5 
14314 14317 14320     5 
14318 14317 14319     5 
14318 14317 14320     5 
14319 14317 14320     5 
14317 14320 14321     5 
14317 14320 14322     5 
14317 14320 14323     5 
14321 14320 14322     5 
14321 14320 14323     5 
14322 14320 14323     5 
14320 14323 14324     5 
14320 14323 14325     5 
14320 14323 14326     5 
14324 14323 14325     5 
14324 14323 14326     5 
14325 14323 14326     5 
14323 14326 14327     5 
14323 14326 14328     5 
14323 14326 14329     5 
14327 14326 14328     5 
14327 14326 14329     5 
14328 14326 14329     5 
14326 14329 14330     5 
14326 14329 14331     5 
14326 14329 14332     5 
14330 14329 14331     5 
14330 14329 14332     5 
14331 14329 14332     5 
14329 14332 14333     5 
14329 14332 14334     5 
14329 14332 14335     5 
14333 14332 14334     5 
14333 14332 14335     5 
14334 14332 14335     5 
14332 14335 14336     5 
14332 14335 14337     5 
14332 14335 14338     5 
14336 14335 14337     5 
14336 14335 14338     5 
14337 14335 14338     5 
14340 14339 14343     5 
14340 14339 14347     5 
14340 14339 14351     5 
14343 14339 14347     5 
14343 14339 14351     5 
14347 14339 14351     5 
14339 14340 14341     5 
14339 14340 14342     5 
14339 14340 14355     5 
14341 14340 14342     5 
14341 14340 14355     5 
14342 14340 14355     5 
14339 14343 14344     5 
14339 14343 14345     5 
14339 14343 14346     5 
14344 14343 14345     5 
14344 14343 14346     5 
14345 14343 14346     5 
14339 14347 14348     5 
14339 14347 14349     5 
14339 14347 14350     5 
14348 14347 14349     5 
14348 14347 14350     5 
14349 14347 14350     5 
14339 14351 14352     5 
14339 14351 14353     5 
14339 14351 14354     5 
14352 14351 14353     5 
14352 14351 14354     5 
14353 14351 14354     5 
14340 14355 14356     5 
14340 14355 14357     5 
14340 14355 14361     5 
14356 14355 14357     5 
14356 14355 14361     5 
14357 14355 14361     5 
14359 14358 14360     5 
14359 14358 14361     5 
14359 14358 14362     5 
14360 14358 14361     5 
14360 14358 14362     5 
14361 14358 14362     5 
14355 14361 14358     5 
14358 14362 14363     5 
14362 14363 14364     5 
14362 14363 14365     5 
14362 14363 14366     5 
14364 14363 14365     5 
14364 14363 14366     5 
14365 14363 14366     5 
14363 14366 14367     5 
14363 14366 14368     5 
14363 14366 14374     5 
14367 14366 14368     5 
14367 14366 14374     5 
14368 14366 14374     5 
14366 14368 14369     5 
14368 14369 14370     5 
14368 14369 14371     5 
14370 14369 14371     5 
14369 14371 14372     5 
14369 14371 14373     5 
14369 14371 14383     5 
14372 14371 14373     5 
14372 14371 14383     5 
14373 14371 14383     5 
14366 14374 14375     5 
14366 14374 14376     5 
14366 14374 14377     5 
14375 14374 14376     5 
14375 14374 14377     5 
14376 14374 14377     5 
14374 14377 14378     5 
14377 14378 14379     5 
14377 14378 14380     5 
14379 14378 14380     5 
14378 14380 14381     5 
14378 14380 14382     5 
14378 14380 14430     5 
14381 14380 14382     5 
14381 14380 14430     5 
14382 14380 14430     5 
14371 14383 14384     5 
14371 14383 14385     5 
14371 14383 14386     5 
14384 14383 14385     5 
14384 14383 14386     5 
14385 14383 14386     5 
14383 14386 14387     5 
14383 14386 14388     5 
14383 14386 14389     5 
14387 14386 14388     5 
14387 14386 14389     5 
14388 14386 14389     5 
14386 14389 14390     5 
14386 14389 14391     5 
14386 14389 14392     5 
14390 14389 14391     5 
14390 14389 14392     5 
14391 14389 14392     5 
14389 14392 14393     5 
14389 14392 14394     5 
14389 14392 14395     5 
14393 14392 14394     5 
14393 14392 14395     5 
14394 14392 14395     5 
14392 14395 14396     5 
14392 14395 14397     5 
14392 14395 14398     5 
14396 14395 14397     5 
14396 14395 14398     5 
14397 14395 14398     5 
14395 14398 14399     5 
14395 14398 14400     5 
14395 14398 14401     5 
14399 14398 14400     5 
14399 14398 14401     5 
14400 14398 14401     5 
14398 14401 14402     5 
14398 14401 14403     5 
14402 14401 14403     5 
14401 14403 14404     5 
14401 14403 14405     5 
14404 14403 14405     5 
14403 14405 14406     5 
14403 14405 14407     5 
14403 14405 14408     5 
14406 14405 14407     5 
14406 14405 14408     5 
14407 14405 14408     5 
14405 14408 14409     5 
14405 14408 14410     5 
14405 14408 14411     5 
14409 14408 14410     5 
14409 14408 14411     5 
14410 14408 14411     5 
14408 14411 14412     5 
14408 14411 14413     5 
14408 14411 14414     5 
14412 14411 14413     5 
14412 14411 14414     5 
14413 14411 14414     5 
14411 14414 14415     5 
14411 14414 14416     5 
14411 14414 14417     5 
14415 14414 14416     5 
14415 14414 14417     5 
14416 14414 14417     5 
14414 14417 14418     5 
14414 14417 14419     5 
14414 14417 14420     5 
14418 14417 14419     5 
14418 14417 14420     5 
14419 14417 14420     5 
14417 14420 14421     5 
14417 14420 14422     5 
14417 14420 14423     5 
14421 14420 14422     5 
14421 14420 14423     5 
14422 14420 14423     5 
14420 14423 14424     5 
14420 14423 14425     5 
14420 14423 14426     5 
14424 14423 14425     5 
14424 14423 14426     5 
14425 14423 14426     5 
14423 14426 14427     5 
14423 14426 14428     5 
14423 14426 14429     5 
14427 14426 14428     5 
14427 14426 14429     5 
14428 14426 14429     5 
14380 14430 14431     5 
14380 14430 14432     5 
14380 14430 14433     5 
14431 14430 14432     5 
14431 14430 14433     5 
14432 14430 14433     5 
14430 14433 14434     5 
14430 14433 14435     5 
14430 14433 14436     5 
14434 14433 14435     5 
14434 14433 14436     5 
14435 14433 14436     5 
14433 14436 14437     5 
14433 14436 14438     5 
14433 14436 14439     5 
14437 14436 14438     5 
14437 14436 14439     5 
14438 14436 14439     5 
14436 14439 14440     5 
14436 14439 14441     5 
14436 14439 14442     5 
14440 14439 14441     5 
14440 14439 14442     5 
14441 14439 14442     5 
14439 14442 14443     5 
14439 14442 14444     5 
14439 14442 14445     5 
14443 14442 14444     5 
14443 14442 14445     5 
14444 14442 14445     5 
14442 14445 14446     5 
14442 14445 14447     5 
14442 14445 14448     5 
14446 14445 14447     5 
14446 14445 14448     5 
14447 14445 14448     5 
14445 14448 14449     5 
14445 14448 14450     5 
14445 14448 14451     5 
14449 14448 14450     5 
14449 14448 14451     5 
14450 14448 14451     5 
14448 14451 14452     5 
14448 14451 14453     5 
14448 14451 14454     5 
14452 14451 14453     5 
14452 14451 14454     5 
14453 14451 14454     5 
14451 14454 14455     5 
14451 14454 14456     5 
14451 14454 14457     5 
14455 14454 14456     5 
14455 14454 14457     5 
14456 14454 14457     5 
14454 14457 14458     5 
14454 14457 14459     5 
14454 14457 14460     5 
14458 14457 14459     5 
14458 14457 14460     5 
14459 14457 14460     5 
14457 14460 14461     5 
14457 14460 14462     5 
14457 14460 14463     5 
14461 14460 14462     5 
14461 14460 14463     5 
14462 14460 14463     5 
14460 14463 14464     5 
14460 14463 14465     5 
14460 14463 14466     5 
14464 14463 14465     5 
14464 14463 14466     5 
14465 14463 14466     5 
14463 14466 14467     5 
14463 14466 14468     5 
14463 14466 14469     5 
14467 14466 14468     5 
14467 14466 14469     5 
14468 14466 14469     5 
14466 14469 14470     5 
14466 14469 14471     5 
14466 14469 14472     5 
14470 14469 14471     5 
14470 14469 14472     5 
14471 14469 14472     5 
14474 14473 14477     5 
14474 14473 14481     5 
14474 14473 14485     5 
14477 14473 14481     5 
14477 14473 14485     5 
14481 14473 14485     5 
14473 14474 14475     5 
14473 14474 14476     5 
14473 14474 14489     5 
14475 14474 14476     5 
14475 14474 14489     5 
14476 14474 14489     5 
14473 14477 14478     5 
14473 14477 14479     5 
14473 14477 14480     5 
14478 14477 14479     5 
14478 14477 14480     5 
14479 14477 14480     5 
14473 14481 14482     5 
14473 14481 14483     5 
14473 14481 14484     5 
14482 14481 14483     5 
14482 14481 14484     5 
14483 14481 14484     5 
14473 14485 14486     5 
14473 14485 14487     5 
14473 14485 14488     5 
14486 14485 14487     5 
14486 14485 14488     5 
14487 14485 14488     5 
14474 14489 14490     5 
14474 14489 14491     5 
14474 14489 14495     5 
14490 14489 14491     5 
14490 14489 14495     5 
14491 14489 14495     5 
14493 14492 14494     5 
14493 14492 14495     5 
14493 14492 14496     5 
14494 14492 14495     5 
14494 14492 14496     5 
14495 14492 14496     5 
14489 14495 14492     5 
14492 14496 14497     5 
14496 14497 14498     5 
14496 14497 14499     5 
14496 14497 14500     5 
14498 14497 14499     5 
14498 14497 14500     5 
14499 14497 14500     5 
14497 14500 14501     5 
14497 14500 14502     5 
14497 14500 14508     5 
14501 14500 14502     5 
14501 14500 14508     5 
14502 14500 14508     5 
14500 14502 14503     5 
14502 14503 14504     5 
14502 14503 14505     5 
14504 14503 14505     5 
14503 14505 14506     5 
14503 14505 14507     5 
14503 14505 14517     5 
14506 14505 14507     5 
14506 14505 14517     5 
14507 14505 14517     5 
14500 14508 14509     5 
14500 14508 14510     5 
14500 14508 14511     5 
14509 14508 14510     5 
14509 14508 14511     5 
14510 14508 14511     5 
14508 14511 14512     5 
14511 14512 14513     5 
14511 14512 14514     5 
14513 14512 14514     5 
14512 14514 14515     5 
14512 14514 14516     5 
14512 14514 14564     5 
14515 14514 14516     5 
14515 14514 14564     5 
14516 14514 14564     5 
14505 14517 14518     5 
14505 14517 14519     5 
14505 14517 14520     5 
14518 14517 14519     5 
14518 14517 14520     5 
14519 14517 14520     5 
14517 14520 14521     5 
14517 14520 14522     5 
14517 14520 14523     5 
14521 14520 14522     5 
14521 14520 14523     5 
14522 14520 14523     5 
14520 14523 14524     5 
14520 14523 14525     5 
14520 14523 14526     5 
14524 14523 14525     5 
14524 14523 14526     5 
14525 14523 14526     5 
14523 14526 14527     5 
14523 14526 14528     5 
14523 14526 14529     5 
14527 14526 14528     5 
14527 14526 14529     5 
14528 14526 14529     5 
14526 14529 14530     5 
14526 14529 14531     5 
14526 14529 14532     5 
14530 14529 14531     5 
14530 14529 14532     5 
14531 14529 14532     5 
14529 14532 14533     5 
14529 14532 14534     5 
14529 14532 14535     5 
14533 14532 14534     5 
14533 14532 14535     5 
14534 14532 14535     5 
14532 14535 14536     5 
14532 14535 14537     5 
14536 14535 14537     5 
14535 14537 14538     5 
14535 14537 14539     5 
14538 14537 14539     5 
14537 14539 14540     5 
14537 14539 14541     5 
14537 14539 14542     5 
14540 14539 14541     5 
14540 14539 14542     5 
14541 14539 14542     5 
14539 14542 14543     5 
14539 14542 14544     5 
14539 14542 14545     5 
14543 14542 14544     5 
14543 14542 14545     5 
14544 14542 14545     5 
14542 14545 14546     5 
14542 14545 14547     5 
14542 14545 14548     5 
14546 14545 14547     5 
14546 14545 14548     5 
14547 14545 14548     5 
14545 14548 14549     5 
14545 14548 14550     5 
14545 14548 14551     5 
14549 14548 14550     5 
14549 14548 14551     5 
14550 14548 14551     5 
14548 14551 14552     5 
14548 14551 14553     5 
14548 14551 14554     5 
14552 14551 14553     5 
14552 14551 14554     5 
14553 14551 14554     5 
14551 14554 14555     5 
14551 14554 14556     5 
14551 14554 14557     5 
14555 14554 14556     5 
14555 14554 14557     5 
14556 14554 14557     5 
14554 14557 14558     5 
14554 14557 14559     5 
14554 14557 14560     5 
14558 14557 14559     5 
14558 14557 14560     5 
14559 14557 14560     5 
14557 14560 14561     5 
14557 14560 14562     5 
14557 14560 14563     5 
14561 14560 14562     5 
14561 14560 14563     5 
14562 14560 14563     5 
14514 14564 14565     5 
14514 14564 14566     5 
14514 14564 14567     5 
14565 14564 14566     5 
14565 14564 14567     5 
14566 14564 14567     5 
14564 14567 14568     5 
14564 14567 14569     5 
14564 14567 14570     5 
14568 14567 14569     5 
14568 14567 14570     5 
14569 14567 14570     5 
14567 14570 14571     5 
14567 14570 14572     5 
14567 14570 14573     5 
14571 14570 14572     5 
14571 14570 14573     5 
14572 14570 14573     5 
14570 14573 14574     5 
14570 14573 14575     5 
14570 14573 14576     5 
14574 14573 14575     5 
14574 14573 14576     5 
14575 14573 14576     5 
14573 14576 14577     5 
14573 14576 14578     5 
14573 14576 14579     5 
14577 14576 14578     5 
14577 14576 14579     5 
14578 14576 14579     5 
14576 14579 14580     5 
14576 14579 14581     5 
14576 14579 14582     5 
14580 14579 14581     5 
14580 14579 14582     5 
14581 14579 14582     5 
14579 14582 14583     5 
14579 14582 14584     5 
14579 14582 14585     5 
14583 14582 14584     5 
14583 14582 14585     5 
14584 14582 14585     5 
14582 14585 14586     5 
14582 14585 14587     5 
14582 14585 14588     5 
14586 14585 14587     5 
14586 14585 14588     5 
14587 14585 14588     5 
14585 14588 14589     5 
14585 14588 14590     5 
14585 14588 14591     5 
14589 14588 14590     5 
14589 14588 14591     5 
14590 14588 14591     5 
14588 14591 14592     5 
14588 14591 14593     5 
14588 14591 14594     5 
14592 14591 14593     5 
14592 14591 14594     5 
14593 14591 14594     5 
14591 14594 14595     5 
14591 14594 14596     5 
14591 14594 14597     5 
14595 14594 14596     5 
14595 14594 14597     5 
14596 14594 14597     5 
14594 14597 14598     5 
14594 14597 14599     5 
14594 14597 14600     5 
14598 14597 14599     5 
14598 14597 14600     5 
14599 14597 14600     5 
14597 14600 14601     5 
14597 14600 14602     5 
14597 14600 14603     5 
14601 14600 14602     5 
14601 14600 14603     5 
14602 14600 14603     5 
14600 14603 14604     5 
14600 14603 14605     5 
14600 14603 14606     5 
14604 14603 14605     5 
14604 14603 14606     5 
14605 14603 14606     5 
14608 14607 14611     5 
14608 14607 14615     5 
14608 14607 14619     5 
14611 14607 14615     5 
14611 14607 14619     5 
14615 14607 14619     5 
14607 14608 14609     5 
14607 14608 14610     5 
14607 14608 14623     5 
14609 14608 14610     5 
14609 14608 14623     5 
14610 14608 14623     5 
14607 14611 14612     5 
14607 14611 14613     5 
14607 14611 14614     5 
14612 14611 14613     5 
14612 14611 14614     5 
14613 14611 14614     5 
14607 14615 14616     5 
14607 14615 14617     5 
14607 14615 14618     5 
14616 14615 14617     5 
14616 14615 14618     5 
14617 14615 14618     5 
14607 14619 14620     5 
14607 14619 14621     5 
14607 14619 14622     5 
14620 14619 14621     5 
14620 14619 14622     5 
14621 14619 14622     5 
14608 14623 14624     5 
14608 14623 14625     5 
14608 14623 14629     5 
14624 14623 14625     5 
14624 14623 14629     5 
14625 14623 14629     5 
14627 14626 14628     5 
14627 14626 14629     5 
14627 14626 14630     5 
14628 14626 14629     5 
14628 14626 14630     5 
14629 14626 14630     5 
14623 14629 14626     5 
14626 14630 14631     5 
14630 14631 14632     5 
14630 14631 14633     5 
14630 14631 14634     5 
14632 14631 14633     5 
14632 14631 14634     5 
14633 14631 14634     5 
14631 14634 14635     5 
14631 14634 14636     5 
14631 14634 14642     5 
14635 14634 14636     5 
14635 14634 14642     5 
14636 14634 14642     5 
14634 14636 14637     5 
14636 14637 14638     5 
14636 14637 14639     5 
14638 14637 14639     5 
14637 14639 14640     5 
14637 14639 14641     5 
14637 14639 14651     5 
14640 14639 14641     5 
14640 14639 14651     5 
14641 14639 14651     5 
14634 14642 14643     5 
14634 14642 14644     5 
14634 14642 14645     5 
14643 14642 14644     5 
14643 14642 14645     5 
14644 14642 14645     5 
14642 14645 14646     5 
14645 14646 14647     5 
14645 14646 14648     5 
14647 14646 14648     5 
14646 14648 14649     5 
14646 14648 14650     5 
14646 14648 14698     5 
14649 14648 14650     5 
14649 14648 14698     5 
14650 14648 14698     5 
14639 14651 14652     5 
14639 14651 14653     5 
14639 14651 14654     5 
14652 14651 14653     5 
14652 14651 14654     5 
14653 14651 14654     5 
14651 14654 14655     5 
14651 14654 14656     5 
14651 14654 14657     5 
14655 14654 14656     5 
14655 14654 14657     5 
14656 14654 14657     5 
14654 14657 14658     5 
14654 14657 14659     5 
14654 14657 14660     5 
14658 14657 14659     5 
14658 14657 14660     5 
14659 14657 14660     5 
14657 14660 14661     5 
14657 14660 14662     5 
14657 14660 14663     5 
14661 14660 14662     5 
14661 14660 14663     5 
14662 14660 14663     5 
14660 14663 14664     5 
14660 14663 14665     5 
14660 14663 14666     5 
14664 14663 14665     5 
14664 14663 14666     5 
14665 14663 14666     5 
14663 14666 14667     5 
14663 14666 14668     5 
14663 14666 14669     5 
14667 14666 14668     5 
14667 14666 14669     5 
14668 14666 14669     5 
14666 14669 14670     5 
14666 14669 14671     5 
14670 14669 14671     5 
14669 14671 14672     5 
14669 14671 14673     5 
14672 14671 14673     5 
14671 14673 14674     5 
14671 14673 14675     5 
14671 14673 14676     5 
14674 14673 14675     5 
14674 14673 14676     5 
14675 14673 14676     5 
14673 14676 14677     5 
14673 14676 14678     5 
14673 14676 14679     5 
14677 14676 14678     5 
14677 14676 14679     5 
14678 14676 14679     5 
14676 14679 14680     5 
14676 14679 14681     5 
14676 14679 14682     5 
14680 14679 14681     5 
14680 14679 14682     5 
14681 14679 14682     5 
14679 14682 14683     5 
14679 14682 14684     5 
14679 14682 14685     5 
14683 14682 14684     5 
14683 14682 14685     5 
14684 14682 14685     5 
14682 14685 14686     5 
14682 14685 14687     5 
14682 14685 14688     5 
14686 14685 14687     5 
14686 14685 14688     5 
14687 14685 14688     5 
14685 14688 14689     5 
14685 14688 14690     5 
14685 14688 14691     5 
14689 14688 14690     5 
14689 14688 14691     5 
14690 14688 14691     5 
14688 14691 14692     5 
14688 14691 14693     5 
14688 14691 14694     5 
14692 14691 14693     5 
14692 14691 14694     5 
14693 14691 14694     5 
14691 14694 14695     5 
14691 14694 14696     5 
14691 14694 14697     5 
14695 14694 14696     5 
14695 14694 14697     5 
14696 14694 14697     5 
14648 14698 14699     5 
14648 14698 14700     5 
14648 14698 14701     5 
14699 14698 14700     5 
14699 14698 14701     5 
14700 14698 14701     5 
14698 14701 14702     5 
14698 14701 14703     5 
14698 14701 14704     5 
14702 14701 14703     5 
14702 14701 14704     5 
14703 14701 14704     5 
14701 14704 14705     5 
14701 14704 14706     5 
14701 14704 14707     5 
14705 14704 14706     5 
14705 14704 14707     5 
14706 14704 14707     5 
14704 14707 14708     5 
14704 14707 14709     5 
14704 14707 14710     5 
14708 14707 14709     5 
14708 14707 14710     5 
14709 14707 14710     5 
14707 14710 14711     5 
14707 14710 14712     5 
14707 14710 14713     5 
14711 14710 14712     5 
14711 14710 14713     5 
14712 14710 14713     5 
14710 14713 14714     5 
14710 14713 14715     5 
14710 14713 14716     5 
14714 14713 14715     5 
14714 14713 14716     5 
14715 14713 14716     5 
14713 14716 14717     5 
14713 14716 14718     5 
14713 14716 14719     5 
14717 14716 14718     5 
14717 14716 14719     5 
14718 14716 14719     5 
14716 14719 14720     5 
14716 14719 14721     5 
14716 14719 14722     5 
14720 14719 14721     5 
14720 14719 14722     5 
14721 14719 14722     5 
14719 14722 14723     5 
14719 14722 14724     5 
14719 14722 14725     5 
14723 14722 14724     5 
14723 14722 14725     5 
14724 14722 14725     5 
14722 14725 14726     5 
14722 14725 14727     5 
14722 14725 14728     5 
14726 14725 14727     5 
14726 14725 14728     5 
14727 14725 14728     5 
14725 14728 14729     5 
14725 14728 14730     5 
14725 14728 14731     5 
14729 14728 14730     5 
14729 14728 14731     5 
14730 14728 14731     5 
14728 14731 14732     5 
14728 14731 14733     5 
14728 14731 14734     5 
14732 14731 14733     5 
14732 14731 14734     5 
14733 14731 14734     5 
14731 14734 14735     5 
14731 14734 14736     5 
14731 14734 14737     5 
14735 14734 14736     5 
14735 14734 14737     5 
14736 14734 14737     5 
14734 14737 14738     5 
14734 14737 14739     5 
14734 14737 14740     5 
14738 14737 14739     5 
14738 14737 14740     5 
14739 14737 14740     5 
14742 14741 14745     5 
14742 14741 14749     5 
14742 14741 14753     5 
14745 14741 14749     5 
14745 14741 14753     5 
14749 14741 14753     5 
14741 14742 14743     5 
14741 14742 14744     5 
14741 14742 14757     5 
14743 14742 14744     5 
14743 14742 14757     5 
14744 14742 14757     5 
14741 14745 14746     5 
14741 14745 14747     5 
14741 14745 14748     5 
14746 14745 14747     5 
14746 14745 14748     5 
14747 14745 14748     5 
14741 14749 14750     5 
14741 14749 14751     5 
14741 14749 14752     5 
14750 14749 14751     5 
14750 14749 14752     5 
14751 14749 14752     5 
14741 14753 14754     5 
14741 14753 14755     5 
14741 14753 14756     5 
14754 14753 14755     5 
14754 14753 14756     5 
14755 14753 14756     5 
14742 14757 14758     5 
14742 14757 14759     5 
14742 14757 14763     5 
14758 14757 14759     5 
14758 14757 14763     5 
14759 14757 14763     5 
14761 14760 14762     5 
14761 14760 14763     5 
14761 14760 14764     5 
14762 14760 14763     5 
14762 14760 14764     5 
14763 14760 14764     5 
14757 14763 14760     5 
14760 14764 14765     5 
14764 14765 14766     5 
14764 14765 14767     5 
14764 14765 14768     5 
14766 14765 14767     5 
14766 14765 14768     5 
14767 14765 14768     5 
14765 14768 14769     5 
14765 14768 14770     5 
14765 14768 14776     5 
14769 14768 14770     5 
14769 14768 14776     5 
14770 14768 14776     5 
14768 14770 14771     5 
14770 14771 14772     5 
14770 14771 14773     5 
14772 14771 14773     5 
14771 14773 14774     5 
14771 14773 14775     5 
14771 14773 14785     5 
14774 14773 14775     5 
14774 14773 14785     5 
14775 14773 14785     5 
14768 14776 14777     5 
14768 14776 14778     5 
14768 14776 14779     5 
14777 14776 14778     5 
14777 14776 14779     5 
14778 14776 14779     5 
14776 14779 14780     5 
14779 14780 14781     5 
14779 14780 14782     5 
14781 14780 14782     5 
14780 14782 14783     5 
14780 14782 14784     5 
14780 14782 14832     5 
14783 14782 14784     5 
14783 14782 14832     5 
14784 14782 14832     5 
14773 14785 14786     5 
14773 14785 14787     5 
14773 14785 14788     5 
14786 14785 14787     5 
14786 14785 14788     5 
14787 14785 14788     5 
14785 14788 14789     5 
14785 14788 14790     5 
14785 14788 14791     5 
14789 14788 14790     5 
14789 14788 14791     5 
14790 14788 14791     5 
14788 14791 14792     5 
14788 14791 14793     5 
14788 14791 14794     5 
14792 14791 14793     5 
14792 14791 14794     5 
14793 14791 14794     5 
14791 14794 14795     5 
14791 14794 14796     5 
14791 14794 14797     5 
14795 14794 14796     5 
14795 14794 14797     5 
14796 14794 14797     5 
14794 14797 14798     5 
14794 14797 14799     5 
14794 14797 14800     5 
14798 14797 14799     5 
14798 14797 14800     5 
14799 14797 14800     5 
14797 14800 14801     5 
14797 14800 14802     5 
14797 14800 14803     5 
14801 14800 14802     5 
14801 14800 14803     5 
14802 14800 14803     5 
14800 14803 14804     5 
14800 14803 14805     5 
14804 14803 14805     5 
14803 14805 14806     5 
14803 14805 14807     5 
14806 14805 14807     5 
14805 14807 14808     5 
14805 14807 14809     5 
14805 14807 14810     5 
14808 14807 14809     5 
14808 14807 14810     5 
14809 14807 14810     5 
14807 14810 14811     5 
14807 14810 14812     5 
14807 14810 14813     5 
14811 14810 14812     5 
14811 14810 14813     5 
14812 14810 14813     5 
14810 14813 14814     5 
14810 14813 14815     5 
14810 14813 14816     5 
14814 14813 14815     5 
14814 14813 14816     5 
14815 14813 14816     5 
14813 14816 14817     5 
14813 14816 14818     5 
14813 14816 14819     5 
14817 14816 14818     5 
14817 14816 14819     5 
14818 14816 14819     5 
14816 14819 14820     5 
14816 14819 14821     5 
14816 14819 14822     5 
14820 14819 14821     5 
14820 14819 14822     5 
14821 14819 14822     5 
14819 14822 14823     5 
14819 14822 14824     5 
14819 14822 14825     5 
14823 14822 14824     5 
14823 14822 14825     5 
14824 14822 14825     5 
14822 14825 14826     5 
14822 14825 14827     5 
14822 14825 14828     5 
14826 14825 14827     5 
14826 14825 14828     5 
14827 14825 14828     5 
14825 14828 14829     5 
14825 14828 14830     5 
14825 14828 14831     5 
14829 14828 14830     5 
14829 14828 14831     5 
14830 14828 14831     5 
14782 14832 14833     5 
14782 14832 14834     5 
14782 14832 14835     5 
14833 14832 14834     5 
14833 14832 14835     5 
14834 14832 14835     5 
14832 14835 14836     5 
14832 14835 14837     5 
14832 14835 14838     5 
14836 14835 14837     5 
14836 14835 14838     5 
14837 14835 14838     5 
14835 14838 14839     5 
14835 14838 14840     5 
14835 14838 14841     5 
14839 14838 14840     5 
14839 14838 14841     5 
14840 14838 14841     5 
14838 14841 14842     5 
14838 14841 14843     5 
14838 14841 14844     5 
14842 14841 14843     5 
14842 14841 14844     5 
14843 14841 14844     5 
14841 14844 14845     5 
14841 14844 14846     5 
14841 14844 14847     5 
14845 14844 14846     5 
14845 14844 14847     5 
14846 14844 14847     5 
14844 14847 14848     5 
14844 14847 14849     5 
14844 14847 14850     5 
14848 14847 14849     5 
14848 14847 14850     5 
14849 14847 14850     5 
14847 14850 14851     5 
14847 14850 14852     5 
14847 14850 14853     5 
14851 14850 14852     5 
14851 14850 14853     5 
14852 14850 14853     5 
14850 14853 14854     5 
14850 14853 14855     5 
14850 14853 14856     5 
14854 14853 14855     5 
14854 14853 14856     5 
14855 14853 14856     5 
14853 14856 14857     5 
14853 14856 14858     5 
14853 14856 14859     5 
14857 14856 14858     5 
14857 14856 14859     5 
14858 14856 14859     5 
14856 14859 14860     5 
14856 14859 14861     5 
14856 14859 14862     5 
14860 14859 14861     5 
14860 14859 14862     5 
14861 14859 14862     5 
14859 14862 14863     5 
14859 14862 14864     5 
14859 14862 14865     5 
14863 14862 14864     5 
14863 14862 14865     5 
14864 14862 14865     5 
14862 14865 14866     5 
14862 14865 14867     5 
14862 14865 14868     5 
14866 14865 14867     5 
14866 14865 14868     5 
14867 14865 14868     5 
14865 14868 14869     5 
14865 14868 14870     5 
14865 14868 14871     5 
14869 14868 14870     5 
14869 14868 14871     5 
14870 14868 14871     5 
14868 14871 14872     5 
14868 14871 14873     5 
14868 14871 14874     5 
14872 14871 14873     5 
14872 14871 14874     5 
14873 14871 14874     5 
14876 14875 14879     5 
14876 14875 14883     5 
14876 14875 14887     5 
14879 14875 14883     5 
14879 14875 14887     5 
14883 14875 14887     5 
14875 14876 14877     5 
14875 14876 14878     5 
14875 14876 14891     5 
14877 14876 14878     5 
14877 14876 14891     5 
14878 14876 14891     5 
14875 14879 14880     5 
14875 14879 14881     5 
14875 14879 14882     5 
14880 14879 14881     5 
14880 14879 14882     5 
14881 14879 14882     5 
14875 14883 14884     5 
14875 14883 14885     5 
14875 14883 14886     5 
14884 14883 14885     5 
14884 14883 14886     5 
14885 14883 14886     5 
14875 14887 14888     5 
14875 14887 14889     5 
14875 14887 14890     5 
14888 14887 14889     5 
14888 14887 14890     5 
14889 14887 14890     5 
14876 14891 14892     5 
14876 14891 14893     5 
14876 14891 14897     5 
14892 14891 14893     5 
14892 14891 14897     5 
14893 14891 14897     5 
14895 14894 14896     5 
14895 14894 14897     5 
14895 14894 14898     5 
14896 14894 14897     5 
14896 14894 14898     5 
14897 14894 14898     5 
14891 14897 14894     5 
14894 14898 14899     5 
14898 14899 14900     5 
14898 14899 14901     5 
14898 14899 14902     5 
14900 14899 14901     5 
14900 14899 14902     5 
14901 14899 14902     5 
14899 14902 14903     5 
14899 14902 14904     5 
14899 14902 14910     5 
14903 14902 14904     5 
14903 14902 14910     5 
14904 14902 14910     5 
14902 14904 14905     5 
14904 14905 14906     5 
14904 14905 14907     5 
14906 14905 14907     5 
14905 14907 14908     5 
14905 14907 14909     5 
14905 14907 14919     5 
14908 14907 14909     5 
14908 14907 14919     5 
14909 14907 14919     5 
14902 14910 14911     5 
14902 14910 14912     5 
14902 14910 14913     5 
14911 14910 14912     5 
14911 14910 14913     5 
14912 14910 14913     5 
14910 14913 14914     5 
14913 14914 14915     5 
14913 14914 14916     5 
14915 14914 14916     5 
14914 14916 14917     5 
14914 14916 14918     5 
14914 14916 14966     5 
14917 14916 14918     5 
14917 14916 14966     5 
14918 14916 14966     5 
14907 14919 14920     5 
14907 14919 14921     5 
14907 14919 14922     5 
14920 14919 14921     5 
14920 14919 14922     5 
14921 14919 14922     5 
14919 14922 14923     5 
14919 14922 14924     5 
14919 14922 14925     5 
14923 14922 14924     5 
14923 14922 14925     5 
14924 14922 14925     5 
14922 14925 14926     5 
14922 14925 14927     5 
14922 14925 14928     5 
14926 14925 14927     5 
14926 14925 14928     5 
14927 14925 14928     5 
14925 14928 14929     5 
14925 14928 14930     5 
14925 14928 14931     5 
14929 14928 14930     5 
14929 14928 14931     5 
14930 14928 14931     5 
14928 14931 14932     5 
14928 14931 14933     5 
14928 14931 14934     5 
14932 14931 14933     5 
14932 14931 14934     5 
14933 14931 14934     5 
14931 14934 14935     5 
14931 14934 14936     5 
14931 14934 14937     5 
14935 14934 14936     5 
14935 14934 14937     5 
14936 14934 14937     5 
14934 14937 14938     5 
14934 14937 14939     5 
14938 14937 14939     5 
14937 14939 14940     5 
14937 14939 14941     5 
14940 14939 14941     5 
14939 14941 14942     5 
14939 14941 14943     5 
14939 14941 14944     5 
14942 14941 14943     5 
14942 14941 14944     5 
14943 14941 14944     5 
14941 14944 14945     5 
14941 14944 14946     5 
14941 14944 14947     5 
14945 14944 14946     5 
14945 14944 14947     5 
14946 14944 14947     5 
14944 14947 14948     5 
14944 14947 14949     5 
14944 14947 14950     5 
14948 14947 14949     5 
14948 14947 14950     5 
14949 14947 14950     5 
14947 14950 14951     5 
14947 14950 14952     5 
14947 14950 14953     5 
14951 14950 14952     5 
14951 14950 14953     5 
14952 14950 14953     5 
14950 14953 14954     5 
14950 14953 14955     5 
14950 14953 14956     5 
14954 14953 14955     5 
14954 14953 14956     5 
14955 14953 14956     5 
14953 14956 14957     5 
14953 14956 14958     5 
14953 14956 14959     5 
14957 14956 14958     5 
14957 14956 14959     5 
14958 14956 14959     5 
14956 14959 14960     5 
14956 14959 14961     5 
14956 14959 14962     5 
14960 14959 14961     5 
14960 14959 14962     5 
14961 14959 14962     5 
14959 14962 14963     5 
14959 14962 14964     5 
14959 14962 14965     5 
14963 14962 14964     5 
14963 14962 14965     5 
14964 14962 14965     5 
14916 14966 14967     5 
14916 14966 14968     5 
14916 14966 14969     5 
14967 14966 14968     5 
14967 14966 14969     5 
14968 14966 14969     5 
14966 14969 14970     5 
14966 14969 14971     5 
14966 14969 14972     5 
14970 14969 14971     5 
14970 14969 14972     5 
14971 14969 14972     5 
14969 14972 14973     5 
14969 14972 14974     5 
14969 14972 14975     5 
14973 14972 14974     5 
14973 14972 14975     5 
14974 14972 14975     5 
14972 14975 14976     5 
14972 14975 14977     5 
14972 14975 14978     5 
14976 14975 14977     5 
14976 14975 14978     5 
14977 14975 14978     5 
14975 14978 14979     5 
14975 14978 14980     5 
14975 14978 14981     5 
14979 14978 14980     5 
14979 14978 14981     5 
14980 14978 14981     5 
14978 14981 14982     5 
14978 14981 14983     5 
14978 14981 14984     5 
14982 14981 14983     5 
14982 14981 14984     5 
14983 14981 14984     5 
14981 14984 14985     5 
14981 14984 14986     5 
14981 14984 14987     5 
14985 14984 14986     5 
14985 14984 14987     5 
14986 14984 14987     5 
14984 14987 14988     5 
14984 14987 14989     5 
14984 14987 14990     5 
14988 14987 14989     5 
14988 14987 14990     5 
14989 14987 14990     5 
14987 14990 14991     5 
14987 14990 14992     5 
14987 14990 14993     5 
14991 14990 14992     5 
14991 14990 14993     5 
14992 14990 14993     5 
14990 14993 14994     5 
14990 14993 14995     5 
14990 14993 14996     5 
14994 14993 14995     5 
14994 14993 14996     5 
14995 14993 14996     5 
14993 14996 14997     5 
14993 14996 14998     5 
14993 14996 14999     5 
14997 14996 14998     5 
14997 14996 14999     5 
14998 14996 14999     5 
14996 14999 15000     5 
14996 14999 15001     5 
14996 14999 15002     5 
15000 14999 15001     5 
15000 14999 15002     5 
15001 14999 15002     5 
14999 15002 15003     5 
14999 15002 15004     5 
14999 15002 15005     5 
15003 15002 15004     5 
15003 15002 15005     5 
15004 15002 15005     5 
15002 15005 15006     5 
15002 15005 15007     5 
15002 15005 15008     5 
15006 15005 15007     5 
15006 15005 15008     5 
15007 15005 15008     5 
15010 15009 15013     5 
15010 15009 15017     5 
15010 15009 15021     5 
15013 15009 15017     5 
15013 15009 15021     5 
15017 15009 15021     5 
15009 15010 15011     5 
15009 15010 15012     5 
15009 15010 15025     5 
15011 15010 15012     5 
15011 15010 15025     5 
15012 15010 15025     5 
15009 15013 15014     5 
15009 15013 15015     5 
15009 15013 15016     5 
15014 15013 15015     5 
15014 15013 15016     5 
15015 15013 15016     5 
15009 15017 15018     5 
15009 15017 15019     5 
15009 15017 15020     5 
15018 15017 15019     5 
15018 15017 15020     5 
15019 15017 15020     5 
15009 15021 15022     5 
15009 15021 15023     5 
15009 15021 15024     5 
15022 15021 15023     5 
15022 15021 15024     5 
15023 15021 15024     5 
15010 15025 15026     5 
15010 15025 15027     5 
15010 15025 15031     5 
15026 15025 15027     5 
15026 15025 15031     5 
15027 15025 15031     5 
15029 15028 15030     5 
15029 15028 15031     5 
15029 15028 15032     5 
15030 15028 15031     5 
15030 15028 15032     5 
15031 15028 15032     5 
15025 15031 15028     5 
15028 15032 15033     5 
15032 15033 15034     5 
15032 15033 15035     5 
15032 15033 15036     5 
15034 15033 15035     5 
15034 15033 15036     5 
15035 15033 15036     5 
15033 15036 15037     5 
15033 15036 15038     5 
15033 15036 15044     5 
15037 15036 15038     5 
15037 15036 15044     5 
15038 15036 15044     5 
15036 15038 15039     5 
15038 15039 15040     5 
15038 15039 15041     5 
15040 15039 15041     5 
15039 15041 15042     5 
15039 15041 15043     5 
15039 15041 15053     5 
15042 15041 15043     5 
15042 15041 15053     5 
15043 15041 15053     5 
15036 15044 15045     5 
15036 15044 15046     5 
15036 15044 15047     5 
15045 15044 15046     5 
15045 15044 15047     5 
15046 15044 15047     5 
15044 15047 15048     5 
15047 15048 15049     5 
15047 15048 15050     5 
15049 15048 15050     5 
15048 15050 15051     5 
15048 15050 15052     5 
15048 15050 15100     5 
15051 15050 15052     5 
15051 15050 15100     5 
15052 15050 15100     5 
15041 15053 15054     5 
15041 15053 15055     5 
15041 15053 15056     5 
15054 15053 15055     5 
15054 15053 15056     5 
15055 15053 15056     5 
15053 15056 15057     5 
15053 15056 15058     5 
15053 15056 15059     5 
15057 15056 15058     5 
15057 15056 15059     5 
15058 15056 15059     5 
15056 15059 15060     5 
15056 15059 15061     5 
15056 15059 15062     5 
15060 15059 15061     5 
15060 15059 15062     5 
15061 15059 15062     5 
15059 15062 15063     5 
15059 15062 15064     5 
15059 15062 15065     5 
15063 15062 15064     5 
15063 15062 15065     5 
15064 15062 15065     5 
15062 15065 15066     5 
15062 15065 15067     5 
15062 15065 15068     5 
15066 15065 15067     5 
15066 15065 15068     5 
15067 15065 15068     5 
15065 15068 15069     5 
15065 15068 15070     5 
15065 15068 15071     5 
15069 15068 15070     5 
15069 15068 15071     5 
15070 15068 15071     5 
15068 15071 15072     5 
15068 15071 15073     5 
15072 15071 15073     5 
15071 15073 15074     5 
15071 15073 15075     5 
15074 15073 15075     5 
15073 15075 15076     5 
15073 15075 15077     5 
15073 15075 15078     5 
15076 15075 15077     5 
15076 15075 15078     5 
15077 15075 15078     5 
15075 15078 15079     5 
15075 15078 15080     5 
15075 15078 15081     5 
15079 15078 15080     5 
15079 15078 15081     5 
15080 15078 15081     5 
15078 15081 15082     5 
15078 15081 15083     5 
15078 15081 15084     5 
15082 15081 15083     5 
15082 15081 15084     5 
15083 15081 15084     5 
15081 15084 15085     5 
15081 15084 15086     5 
15081 15084 15087     5 
15085 15084 15086     5 
15085 15084 15087     5 
15086 15084 15087     5 
15084 15087 15088     5 
15084 15087 15089     5 
15084 15087 15090     5 
15088 15087 15089     5 
15088 15087 15090     5 
15089 15087 15090     5 
15087 15090 15091     5 
15087 15090 15092     5 
15087 15090 15093     5 
15091 15090 15092     5 
15091 15090 15093     5 
15092 15090 15093     5 
15090 15093 15094     5 
15090 15093 15095     5 
15090 15093 15096     5 
15094 15093 15095     5 
15094 15093 15096     5 
15095 15093 15096     5 
15093 15096 15097     5 
15093 15096 15098     5 
15093 15096 15099     5 
15097 15096 15098     5 
15097 15096 15099     5 
15098 15096 15099     5 
15050 15100 15101     5 
15050 15100 15102     5 
15050 15100 15103     5 
15101 15100 15102     5 
15101 15100 15103     5 
15102 15100 15103     5 
15100 15103 15104     5 
15100 15103 15105     5 
15100 15103 15106     5 
15104 15103 15105     5 
15104 15103 15106     5 
15105 15103 15106     5 
15103 15106 15107     5 
15103 15106 15108     5 
15103 15106 15109     5 
15107 15106 15108     5 
15107 15106 15109     5 
15108 15106 15109     5 
15106 15109 15110     5 
15106 15109 15111     5 
15106 15109 15112     5 
15110 15109 15111     5 
15110 15109 15112     5 
15111 15109 15112     5 
15109 15112 15113     5 
15109 15112 15114     5 
15109 15112 15115     5 
15113 15112 15114     5 
15113 15112 15115     5 
15114 15112 15115     5 
15112 15115 15116     5 
15112 15115 15117     5 
15112 15115 15118     5 
15116 15115 15117     5 
15116 15115 15118     5 
15117 15115 15118     5 
15115 15118 15119     5 
15115 15118 15120     5 
15115 15118 15121     5 
15119 15118 15120     5 
15119 15118 15121     5 
15120 15118 15121     5 
15118 15121 15122     5 
15118 15121 15123     5 
15118 15121 15124     5 
15122 15121 15123     5 
15122 15121 15124     5 
15123 15121 15124     5 
15121 15124 15125     5 
15121 15124 15126     5 
15121 15124 15127     5 
15125 15124 15126     5 
15125 15124 15127     5 
15126 15124 15127     5 
15124 15127 15128     5 
15124 15127 15129     5 
15124 15127 15130     5 
15128 15127 15129     5 
15128 15127 15130     5 
15129 15127 15130     5 
15127 15130 15131     5 
15127 15130 15132     5 
15127 15130 15133     5 
15131 15130 15132     5 
15131 15130 15133     5 
15132 15130 15133     5 
15130 15133 15134     5 
15130 15133 15135     5 
15130 15133 15136     5 
15134 15133 15135     5 
15134 15133 15136     5 
15135 15133 15136     5 
15133 15136 15137     5 
15133 15136 15138     5 
15133 15136 15139     5 
15137 15136 15138     5 
15137 15136 15139     5 
15138 15136 15139     5 
15136 15139 15140     5 
15136 15139 15141     5 
15136 15139 15142     5 
15140 15139 15141     5 
15140 15139 15142     5 
15141 15139 15142     5 
15144 15143 15147     5 
15144 15143 15151     5 
15144 15143 15155     5 
15147 15143 15151     5 
15147 15143 15155     5 
15151 15143 15155     5 
15143 15144 15145     5 
15143 15144 15146     5 
15143 15144 15159     5 
15145 15144 15146     5 
15145 15144 15159     5 
15146 15144 15159     5 
15143 15147 15148     5 
15143 15147 15149     5 
15143 15147 15150     5 
15148 15147 15149     5 
15148 15147 15150     5 
15149 15147 15150     5 
15143 15151 15152     5 
15143 15151 15153     5 
15143 15151 15154     5 
15152 15151 15153     5 
15152 15151 15154     5 
15153 15151 15154     5 
15143 15155 15156     5 
15143 15155 15157     5 
15143 15155 15158     5 
15156 15155 15157     5 
15156 15155 15158     5 
15157 15155 15158     5 
15144 15159 15160     5 
15144 15159 15161     5 
15144 15159 15165     5 
15160 15159 15161     5 
15160 15159 15165     5 
15161 15159 15165     5 
15163 15162 15164     5 
15163 15162 15165     5 
15163 15162 15166     5 
15164 15162 15165     5 
15164 15162 15166     5 
15165 15162 15166     5 
15159 15165 15162     5 
15162 15166 15167     5 
15166 15167 15168     5 
15166 15167 15169     5 
15166 15167 15170     5 
15168 15167 15169     5 
15168 15167 15170     5 
15169 15167 15170     5 
15167 15170 15171     5 
15167 15170 15172     5 
15167 15170 15178     5 
15171 15170 15172     5 
15171 15170 15178     5 
15172 15170 15178     5 
15170 15172 15173     5 
15172 15173 15174     5 
15172 15173 15175     5 
15174 15173 15175     5 
15173 15175 15176     5 
15173 15175 15177     5 
15173 15175 15187     5 
15176 15175 15177     5 
15176 15175 15187     5 
15177 15175 15187     5 
15170 15178 15179     5 
15170 15178 15180     5 
15170 15178 15181     5 
15179 15178 15180     5 
15179 15178 15181     5 
15180 15178 15181     5 
15178 15181 15182     5 
15181 15182 15183     5 
15181 15182 15184     5 
15183 15182 15184     5 
15182 15184 15185     5 
15182 15184 15186     5 
15182 15184 15234     5 
15185 15184 15186     5 
15185 15184 15234     5 
15186 15184 15234     5 
15175 15187 15188     5 
15175 15187 15189     5 
15175 15187 15190     5 
15188 15187 15189     5 
15188 15187 15190     5 
15189 15187 15190     5 
15187 15190 15191     5 
15187 15190 15192     5 
15187 15190 15193     5 
15191 15190 15192     5 
15191 15190 15193     5 
15192 15190 15193     5 
15190 15193 15194     5 
15190 15193 15195     5 
15190 15193 15196     5 
15194 15193 15195     5 
15194 15193 15196     5 
15195 15193 15196     5 
15193 15196 15197     5 
15193 15196 15198     5 
15193 15196 15199     5 
15197 15196 15198     5 
15197 15196 15199     5 
15198 15196 15199     5 
15196 15199 15200     5 
15196 15199 15201     5 
15196 15199 15202     5 
15200 15199 15201     5 
15200 15199 15202     5 
15201 15199 15202     5 
15199 15202 15203     5 
15199 15202 15204     5 
15199 15202 15205     5 
15203 15202 15204     5 
15203 15202 15205     5 
15204 15202 15205     5 
15202 15205 15206     5 
15202 15205 15207     5 
15206 15205 15207     5 
15205 15207 15208     5 
15205 15207 15209     5 
15208 15207 15209     5 
15207 15209 15210     5 
15207 15209 15211     5 
15207 15209 15212     5 
15210 15209 15211     5 
15210 15209 15212     5 
15211 15209 15212     5 
15209 15212 15213     5 
15209 15212 15214     5 
15209 15212 15215     5 
15213 15212 15214     5 
15213 15212 15215     5 
15214 15212 15215     5 
15212 15215 15216     5 
15212 15215 15217     5 
15212 15215 15218     5 
15216 15215 15217     5 
15216 15215 15218     5 
15217 15215 15218     5 
15215 15218 15219     5 
15215 15218 15220     5 
15215 15218 15221     5 
15219 15218 15220     5 
15219 15218 15221     5 
15220 15218 15221     5 
15218 15221 15222     5 
15218 15221 15223     5 
15218 15221 15224     5 
15222 15221 15223     5 
15222 15221 15224     5 
15223 15221 15224     5 
15221 15224 15225     5 
15221 15224 15226     5 
15221 15224 15227     5 
15225 15224 15226     5 
15225 15224 15227     5 
15226 15224 15227     5 
15224 15227 15228     5 
15224 15227 15229     5 
15224 15227 15230     5 
15228 15227 15229     5 
15228 15227 15230     5 
15229 15227 15230     5 
15227 15230 15231     5 
15227 15230 15232     5 
15227 15230 15233     5 
15231 15230 15232     5 
15231 15230 15233     5 
15232 15230 15233     5 
15184 15234 15235     5 
15184 15234 15236     5 
15184 15234 15237     5 
15235 15234 15236     5 
15235 15234 15237     5 
15236 15234 15237     5 
15234 15237 15238     5 
15234 15237 15239     5 
15234 15237 15240     5 
15238 15237 15239     5 
15238 15237 15240     5 
15239 15237 15240     5 
15237 15240 15241     5 
15237 15240 15242     5 
15237 15240 15243     5 
15241 15240 15242     5 
15241 15240 15243     5 
15242 15240 15243     5 
15240 15243 15244     5 
15240 15243 15245     5 
15240 15243 15246     5 
15244 15243 15245     5 
15244 15243 15246     5 
15245 15243 15246     5 
15243 15246 15247     5 
15243 15246 15248     5 
15243 15246 15249     5 
15247 15246 15248     5 
15247 15246 15249     5 
15248 15246 15249     5 
15246 15249 15250     5 
15246 15249 15251     5 
15246 15249 15252     5 
15250 15249 15251     5 
15250 15249 15252     5 
15251 15249 15252     5 
15249 15252 15253     5 
15249 15252 15254     5 
15249 15252 15255     5 
15253 15252 15254     5 
15253 15252 15255     5 
15254 15252 15255     5 
15252 15255 15256     5 
15252 15255 15257     5 
15252 15255 15258     5 
15256 15255 15257     5 
15256 15255 15258     5 
15257 15255 15258     5 
15255 15258 15259     5 
15255 15258 15260     5 
15255 15258 15261     5 
15259 15258 15260     5 
15259 15258 15261     5 
15260 15258 15261     5 
15258 15261 15262     5 
15258 15261 15263     5 
15258 15261 15264     5 
15262 15261 15263     5 
15262 15261 15264     5 
15263 15261 15264     5 
15261 15264 15265     5 
15261 15264 15266     5 
15261 15264 15267     5 
15265 15264 15266     5 
15265 15264 15267     5 
15266 15264 15267     5 
15264 15267 15268     5 
15264 15267 15269     5 
15264 15267 15270     5 
15268 15267 15269     5 
15268 15267 15270     5 
15269 15267 15270     5 
15267 15270 15271     5 
15267 15270 15272     5 
15267 15270 15273     5 
15271 15270 15272     5 
15271 15270 15273     5 
15272 15270 15273     5 
15270 15273 15274     5 
15270 15273 15275     5 
15270 15273 15276     5 
15274 15273 15275     5 
15274 15273 15276     5 
15275 15273 15276     5 
15278 15277 15281     5 
15278 15277 15285     5 
15278 15277 15289     5 
15281 15277 15285     5 
15281 15277 15289     5 
15285 15277 15289     5 
15277 15278 15279     5 
15277 15278 15280     5 
15277 15278 15293     5 
15279 15278 15280     5 
15279 15278 15293     5 
15280 15278 15293     5 
15277 15281 15282     5 
15277 15281 15283     5 
15277 15281 15284     5 
15282 15281 15283     5 
15282 15281 15284     5 
15283 15281 15284     5 
15277 15285 15286     5 
15277 15285 15287     5 
15277 15285 15288     5 
15286 15285 15287     5 
15286 15285 15288     5 
15287 15285 15288     5 
15277 15289 15290     5 
15277 15289 15291     5 
15277 15289 15292     5 
15290 15289 15291     5 
15290 15289 15292     5 
15291 15289 15292     5 
15278 15293 15294     5 
15278 15293 15295     5 
15278 15293 15299     5 
15294 15293 15295     5 
15294 15293 15299     5 
15295 15293 15299     5 
15297 15296 15298     5 
15297 15296 15299     5 
15297 15296 15300     5 
15298 15296 15299     5 
15298 15296 15300     5 
15299 15296 15300     5 
15293 15299 15296     5 
15296 15300 15301     5 
15300 15301 15302     5 
15300 15301 15303     5 
15300 15301 15304     5 
15302 15301 15303     5 
15302 15301 15304     5 
15303 15301 15304     5 
15301 15304 15305     5 
15301 15304 15306     5 
15301 15304 15312     5 
15305 15304 15306     5 
15305 15304 15312     5 
15306 15304 15312     5 
15304 15306 15307     5 
15306 15307 15308     5 
15306 15307 15309     5 
15308 15307 15309     5 
15307 15309 15310     5 
15307 15309 15311     5 
15307 15309 15321     5 
15310 15309 15311     5 
15310 15309 15321     5 
15311 15309 15321     5 
15304 15312 15313     5 
15304 15312 15314     5 
15304 15312 15315     5 
15313 15312 15314     5 
15313 15312 15315     5 
15314 15312 15315     5 
15312 15315 15316     5 
15315 15316 15317     5 
15315 15316 15318     5 
15317 15316 15318     5 
15316 15318 15319     5 
15316 15318 15320     5 
15316 15318 15368     5 
15319 15318 15320     5 
15319 15318 15368     5 
15320 15318 15368     5 
15309 15321 15322     5 
15309 15321 15323     5 
15309 15321 15324     5 
15322 15321 15323     5 
15322 15321 15324     5 
15323 15321 15324     5 
15321 15324 15325     5 
15321 15324 15326     5 
15321 15324 15327     5 
15325 15324 15326     5 
15325 15324 15327     5 
15326 15324 15327     5 
15324 15327 15328     5 
15324 15327 15329     5 
15324 15327 15330     5 
15328 15327 15329     5 
15328 15327 15330     5 
15329 15327 15330     5 
15327 15330 15331     5 
15327 15330 15332     5 
15327 15330 15333     5 
15331 15330 15332     5 
15331 15330 15333     5 
15332 15330 15333     5 
15330 15333 15334     5 
15330 15333 15335     5 
15330 15333 15336     5 
15334 15333 15335     5 
15334 15333 15336     5 
15335 15333 15336     5 
15333 15336 15337     5 
15333 15336 15338     5 
15333 15336 15339     5 
15337 15336 15338     5 
15337 15336 15339     5 
15338 15336 15339     5 
15336 15339 15340     5 
15336 15339 15341     5 
15340 15339 15341     5 
15339 15341 15342     5 
15339 15341 15343     5 
15342 15341 15343     5 
15341 15343 15344     5 
15341 15343 15345     5 
15341 15343 15346     5 
15344 15343 15345     5 
15344 15343 15346     5 
15345 15343 15346     5 
15343 15346 15347     5 
15343 15346 15348     5 
15343 15346 15349     5 
15347 15346 15348     5 
15347 15346 15349     5 
15348 15346 15349     5 
15346 15349 15350     5 
15346 15349 15351     5 
15346 15349 15352     5 
15350 15349 15351     5 
15350 15349 15352     5 
15351 15349 15352     5 
15349 15352 15353     5 
15349 15352 15354     5 
15349 15352 15355     5 
15353 15352 15354     5 
15353 15352 15355     5 
15354 15352 15355     5 
15352 15355 15356     5 
15352 15355 15357     5 
15352 15355 15358     5 
15356 15355 15357     5 
15356 15355 15358     5 
15357 15355 15358     5 
15355 15358 15359     5 
15355 15358 15360     5 
15355 15358 15361     5 
15359 15358 15360     5 
15359 15358 15361     5 
15360 15358 15361     5 
15358 15361 15362     5 
15358 15361 15363     5 
15358 15361 15364     5 
15362 15361 15363     5 
15362 15361 15364     5 
15363 15361 15364     5 
15361 15364 15365     5 
15361 15364 15366     5 
15361 15364 15367     5 
15365 15364 15366     5 
15365 15364 15367     5 
15366 15364 15367     5 
15318 15368 15369     5 
15318 15368 15370     5 
15318 15368 15371     5 
15369 15368 15370     5 
15369 15368 15371     5 
15370 15368 15371     5 
15368 15371 15372     5 
15368 15371 15373     5 
15368 15371 15374     5 
15372 15371 15373     5 
15372 15371 15374     5 
15373 15371 15374     5 
15371 15374 15375     5 
15371 15374 15376     5 
15371 15374 15377     5 
15375 15374 15376     5 
15375 15374 15377     5 
15376 15374 15377     5 
15374 15377 15378     5 
15374 15377 15379     5 
15374 15377 15380     5 
15378 15377 15379     5 
15378 15377 15380     5 
15379 15377 15380     5 
15377 15380 15381     5 
15377 15380 15382     5 
15377 15380 15383     5 
15381 15380 15382     5 
15381 15380 15383     5 
15382 15380 15383     5 
15380 15383 15384     5 
15380 15383 15385     5 
15380 15383 15386     5 
15384 15383 15385     5 
15384 15383 15386     5 
15385 15383 15386     5 
15383 15386 15387     5 
15383 15386 15388     5 
15383 15386 15389     5 
15387 15386 15388     5 
15387 15386 15389     5 
15388 15386 15389     5 
15386 15389 15390     5 
15386 15389 15391     5 
15386 15389 15392     5 
15390 15389 15391     5 
15390 15389 15392     5 
15391 15389 15392     5 
15389 15392 15393     5 
15389 15392 15394     5 
15389 15392 15395     5 
15393 15392 15394     5 
15393 15392 15395     5 
15394 15392 15395     5 
15392 15395 15396     5 
15392 15395 15397     5 
15392 15395 15398     5 
15396 15395 15397     5 
15396 15395 15398     5 
15397 15395 15398     5 
15395 15398 15399     5 
15395 15398 15400     5 
15395 15398 15401     5 
15399 15398 15400     5 
15399 15398 15401     5 
15400 15398 15401     5 
15398 15401 15402     5 
15398 15401 15403     5 
15398 15401 15404     5 
15402 15401 15403     5 
15402 15401 15404     5 
15403 15401 15404     5 
15401 15404 15405     5 
15401 15404 15406     5 
15401 15404 15407     5 
15405 15404 15406     5 
15405 15404 15407     5 
15406 15404 15407     5 
15404 15407 15408     5 
15404 15407 15409     5 
15404 15407 15410     5 
15408 15407 15409     5 
15408 15407 15410     5 
15409 15407 15410     5 
15412 15411 15415     5 
15412 15411 15419     5 
15412 15411 15423     5 
15415 15411 15419     5 
15415 15411 15423     5 
15419 15411 15423     5 
15411 15412 15413     5 
15411 15412 15414     5 
15411 15412 15427     5 
15413 15412 15414     5 
15413 15412 15427     5 
15414 15412 15427     5 
15411 15415 15416     5 
15411 15415 15417     5 
15411 15415 15418     5 
15416 15415 15417     5 
15416 15415 15418     5 
15417 15415 15418     5 
15411 15419 15420     5 
15411 15419 15421     5 
15411 15419 15422     5 
15420 15419 15421     5 
15420 15419 15422     5 
15421 15419 15422     5 
15411 15423 15424     5 
15411 15423 15425     5 
15411 15423 15426     5 
15424 15423 15425     5 
15424 15423 15426     5 
15425 15423 15426     5 
15412 15427 15428     5 
15412 15427 15429     5 
15412 15427 15433     5 
15428 15427 15429     5 
15428 15427 15433     5 
15429 15427 15433     5 
15431 15430 15432     5 
15431 15430 15433     5 
15431 15430 15434     5 
15432 15430 15433     5 
15432 15430 15434     5 
15433 15430 15434     5 
15427 15433 15430     5 
15430 15434 15435     5 
15434 15435 15436     5 
15434 15435 15437     5 
15434 15435 15438     5 
15436 15435 15437     5 
15436 15435 15438     5 
15437 15435 15438     5 
15435 15438 15439     5 
15435 15438 15440     5 
15435 15438 15446     5 
15439 15438 15440     5 
15439 15438 15446     5 
15440 15438 15446     5 
15438 15440 15441     5 
15440 15441 15442     5 
15440 15441 15443     5 
15442 15441 15443     5 
15441 15443 15444     5 
15441 15443 15445     5 
15441 15443 15455     5 
15444 15443 15445     5 
15444 15443 15455     5 
15445 15443 15455     5 
15438 15446 15447     5 
15438 15446 15448     5 
15438 15446 15449     5 
15447 15446 15448     5 
15447 15446 15449     5 
15448 15446 15449     5 
15446 15449 15450     5 
15449 15450 15451     5 
15449 15450 15452     5 
15451 15450 15452     5 
15450 15452 15453     5 
15450 15452 15454     5 
15450 15452 15502     5 
15453 15452 15454     5 
15453 15452 15502     5 
15454 15452 15502     5 
15443 15455 15456     5 
15443 15455 15457     5 
15443 15455 15458     5 
15456 15455 15457     5 
15456 15455 15458     5 
15457 15455 15458     5 
15455 15458 15459     5 
15455 15458 15460     5 
15455 15458 15461     5 
15459 15458 15460     5 
15459 15458 15461     5 
15460 15458 15461     5 
15458 15461 15462     5 
15458 15461 15463     5 
15458 15461 15464     5 
15462 15461 15463     5 
15462 15461 15464     5 
15463 15461 15464     5 
15461 15464 15465     5 
15461 15464 15466     5 
15461 15464 15467     5 
15465 15464 15466     5 
15465 15464 15467     5 
15466 15464 15467     5 
15464 15467 15468     5 
15464 15467 15469     5 
15464 15467 15470     5 
15468 15467 15469     5 
15468 15467 15470     5 
15469 15467 15470     5 
15467 15470 15471     5 
15467 15470 15472     5 
15467 15470 15473     5 
15471 15470 15472     5 
15471 15470 15473     5 
15472 15470 15473     5 
15470 15473 15474     5 
15470 15473 15475     5 
15474 15473 15475     5 
15473 15475 15476     5 
15473 15475 15477     5 
15476 15475 15477     5 
15475 15477 15478     5 
15475 15477 15479     5 
15475 15477 15480     5 
15478 15477 15479     5 
15478 15477 15480     5 
15479 15477 15480     5 
15477 15480 15481     5 
15477 15480 15482     5 
15477 15480 15483     5 
15481 15480 15482     5 
15481 15480 15483     5 
15482 15480 15483     5 
15480 15483 15484     5 
15480 15483 15485     5 
15480 15483 15486     5 
15484 15483 15485     5 
15484 15483 15486     5 
15485 15483 15486     5 
15483 15486 15487     5 
15483 15486 15488     5 
15483 15486 15489     5 
15487 15486 15488     5 
15487 15486 15489     5 
15488 15486 15489     5 
15486 15489 15490     5 
15486 15489 15491     5 
15486 15489 15492     5 
15490 15489 15491     5 
15490 15489 15492     5 
15491 15489 15492     5 
15489 15492 15493     5 
15489 15492 15494     5 
15489 15492 15495     5 
15493 15492 15494     5 
15493 15492 15495     5 
15494 15492 15495     5 
15492 15495 15496     5 
15492 15495 15497     5 
15492 15495 15498     5 
15496 15495 15497     5 
15496 15495 15498     5 
15497 15495 15498     5 
15495 15498 15499     5 
15495 15498 15500     5 
15495 15498 15501     5 
15499 15498 15500     5 
15499 15498 15501     5 
15500 15498 15501     5 
15452 15502 15503     5 
15452 15502 15504     5 
15452 15502 15505     5 
15503 15502 15504     5 
15503 15502 15505     5 
15504 15502 15505     5 
15502 15505 15506     5 
15502 15505 15507     5 
15502 15505 15508     5 
15506 15505 15507     5 
15506 15505 15508     5 
15507 15505 15508     5 
15505 15508 15509     5 
15505 15508 15510     5 
15505 15508 15511     5 
15509 15508 15510     5 
15509 15508 15511     5 
15510 15508 15511     5 
15508 15511 15512     5 
15508 15511 15513     5 
15508 15511 15514     5 
15512 15511 15513     5 
15512 15511 15514     5 
15513 15511 15514     5 
15511 15514 15515     5 
15511 15514 15516     5 
15511 15514 15517     5 
15515 15514 15516     5 
15515 15514 15517     5 
15516 15514 15517     5 
15514 15517 15518     5 
15514 15517 15519     5 
15514 15517 15520     5 
15518 15517 15519     5 
15518 15517 15520     5 
15519 15517 15520     5 
15517 15520 15521     5 
15517 15520 15522     5 
15517 15520 15523     5 
15521 15520 15522     5 
15521 15520 15523     5 
15522 15520 15523     5 
15520 15523 15524     5 
15520 15523 15525     5 
15520 15523 15526     5 
15524 15523 15525     5 
15524 15523 15526     5 
15525 15523 15526     5 
15523 15526 15527     5 
15523 15526 15528     5 
15523 15526 15529     5 
15527 15526 15528     5 
15527 15526 15529     5 
15528 15526 15529     5 
15526 15529 15530     5 
15526 15529 15531     5 
15526 15529 15532     5 
15530 15529 15531     5 
15530 15529 15532     5 
15531 15529 15532     5 
15529 15532 15533     5 
15529 15532 15534     5 
15529 15532 15535     5 
15533 15532 15534     5 
15533 15532 15535     5 
15534 15532 15535     5 
15532 15535 15536     5 
15532 15535 15537     5 
15532 15535 15538     5 
15536 15535 15537     5 
15536 15535 15538     5 
15537 15535 15538     5 
15535 15538 15539     5 
15535 15538 15540     5 
15535 15538 15541     5 
15539 15538 15540     5 
15539 15538 15541     5 
15540 15538 15541     5 
15538 15541 15542     5 
15538 15541 15543     5 
15538 15541 15544     5 
15542 15541 15543     5 
15542 15541 15544     5 
15543 15541 15544     5 
15546 15545 15549     5 
15546 15545 15553     5 
15546 15545 15557     5 
15549 15545 15553     5 
15549 15545 15557     5 
15553 15545 15557     5 
15545 15546 15547     5 
15545 15546 15548     5 
15545 15546 15561     5 
15547 15546 15548     5 
15547 15546 15561     5 
15548 15546 15561     5 
15545 15549 15550     5 
15545 15549 15551     5 
15545 15549 15552     5 
15550 15549 15551     5 
15550 15549 15552     5 
15551 15549 15552     5 
15545 15553 15554     5 
15545 15553 15555     5 
15545 15553 15556     5 
15554 15553 15555     5 
15554 15553 15556     5 
15555 15553 15556     5 
15545 15557 15558     5 
15545 15557 15559     5 
15545 15557 15560     5 
15558 15557 15559     5 
15558 15557 15560     5 
15559 15557 15560     5 
15546 15561 15562     5 
15546 15561 15563     5 
15546 15561 15567     5 
15562 15561 15563     5 
15562 15561 15567     5 
15563 15561 15567     5 
15565 15564 15566     5 
15565 15564 15567     5 
15565 15564 15568     5 
15566 15564 15567     5 
15566 15564 15568     5 
15567 15564 15568     5 
15561 15567 15564     5 
15564 15568 15569     5 
15568 15569 15570     5 
15568 15569 15571     5 
15568 15569 15572     5 
15570 15569 15571     5 
15570 15569 15572     5 
15571 15569 15572     5 
15569 15572 15573     5 
15569 15572 15574     5 
15569 15572 15580     5 
15573 15572 15574     5 
15573 15572 15580     5 
15574 15572 15580     5 
15572 15574 15575     5 
15574 15575 15576     5 
15574 15575 15577     5 
15576 15575 15577     5 
15575 15577 15578     5 
15575 15577 15579     5 
15575 15577 15589     5 
15578 15577 15579     5 
15578 15577 15589     5 
15579 15577 15589     5 
15572 15580 15581     5 
15572 15580 15582     5 
15572 15580 15583     5 
15581 15580 15582     5 
15581 15580 15583     5 
15582 15580 15583     5 
15580 15583 15584     5 
15583 15584 15585     5 
15583 15584 15586     5 
15585 15584 15586     5 
15584 15586 15587     5 
15584 15586 15588     5 
15584 15586 15636     5 
15587 15586 15588     5 
15587 15586 15636     5 
15588 15586 15636     5 
15577 15589 15590     5 
15577 15589 15591     5 
15577 15589 15592     5 
15590 15589 15591     5 
15590 15589 15592     5 
15591 15589 15592     5 
15589 15592 15593     5 
15589 15592 15594     5 
15589 15592 15595     5 
15593 15592 15594     5 
15593 15592 15595     5 
15594 15592 15595     5 
15592 15595 15596     5 
15592 15595 15597     5 
15592 15595 15598     5 
15596 15595 15597     5 
15596 15595 15598     5 
15597 15595 15598     5 
15595 15598 15599     5 
15595 15598 15600     5 
15595 15598 15601     5 
15599 15598 15600     5 
15599 15598 15601     5 
15600 15598 15601     5 
15598 15601 15602     5 
15598 15601 15603     5 
15598 15601 15604     5 
15602 15601 15603     5 
15602 15601 15604     5 
15603 15601 15604     5 
15601 15604 15605     5 
15601 15604 15606     5 
15601 15604 15607     5 
15605 15604 15606     5 
15605 15604 15607     5 
15606 15604 15607     5 
15604 15607 15608     5 
15604 15607 15609     5 
15608 15607 15609     5 
15607 15609 15610     5 
15607 15609 15611     5 
15610 15609 15611     5 
15609 15611 15612     5 
15609 15611 15613     5 
15609 15611 15614     5 
15612 15611 15613     5 
15612 15611 15614     5 
15613 15611 15614     5 
15611 15614 15615     5 
15611 15614 15616     5 
15611 15614 15617     5 
15615 15614 15616     5 
15615 15614 15617     5 
15616 15614 15617     5 
15614 15617 15618     5 
15614 15617 15619     5 
15614 15617 15620     5 
15618 15617 15619     5 
15618 15617 15620     5 
15619 15617 15620     5 
15617 15620 15621     5 
15617 15620 15622     5 
15617 15620 15623     5 
15621 15620 15622     5 
15621 15620 15623     5 
15622 15620 15623     5 
15620 15623 15624     5 
15620 15623 15625     5 
15620 15623 15626     5 
15624 15623 15625     5 
15624 15623 15626     5 
15625 15623 15626     5 
15623 15626 15627     5 
15623 15626 15628     5 
15623 15626 15629     5 
15627 15626 15628     5 
15627 15626 15629     5 
15628 15626 15629     5 
15626 15629 15630     5 
15626 15629 15631     5 
15626 15629 15632     5 
15630 15629 15631     5 
15630 15629 15632     5 
15631 15629 15632     5 
15629 15632 15633     5 
15629 15632 15634     5 
15629 15632 15635     5 
15633 15632 15634     5 
15633 15632 15635     5 
15634 15632 15635     5 
15586 15636 15637     5 
15586 15636 15638     5 
15586 15636 15639     5 
15637 15636 15638     5 
15637 15636 15639     5 
15638 15636 15639     5 
15636 15639 15640     5 
15636 15639 15641     5 
15636 15639 15642     5 
15640 15639 15641     5 
15640 15639 15642     5 
15641 15639 15642     5 
15639 15642 15643     5 
15639 15642 15644     5 
15639 15642 15645     5 
15643 15642 15644     5 
15643 15642 15645     5 
15644 15642 15645     5 
15642 15645 15646     5 
15642 15645 15647     5 
15642 15645 15648     5 
15646 15645 15647     5 
15646 15645 15648     5 
15647 15645 15648     5 
15645 15648 15649     5 
15645 15648 15650     5 
15645 15648 15651     5 
15649 15648 15650     5 
15649 15648 15651     5 
15650 15648 15651     5 
15648 15651 15652     5 
15648 15651 15653     5 
15648 15651 15654     5 
15652 15651 15653     5 
15652 15651 15654     5 
15653 15651 15654     5 
15651 15654 15655     5 
15651 15654 15656     5 
15651 15654 15657     5 
15655 15654 15656     5 
15655 15654 15657     5 
15656 15654 15657     5 
15654 15657 15658     5 
15654 15657 15659     5 
15654 15657 15660     5 
15658 15657 15659     5 
15658 15657 15660     5 
15659 15657 15660     5 
15657 15660 15661     5 
15657 15660 15662     5 
15657 15660 15663     5 
15661 15660 15662     5 
15661 15660 15663     5 
15662 15660 15663     5 
15660 15663 15664     5 
15660 15663 15665     5 
15660 15663 15666     5 
15664 15663 15665     5 
15664 15663 15666     5 
15665 15663 15666     5 
15663 15666 15667     5 
15663 15666 15668     5 
15663 15666 15669     5 
15667 15666 15668     5 
15667 15666 15669     5 
15668 15666 15669     5 
15666 15669 15670     5 
15666 15669 15671     5 
15666 15669 15672     5 
15670 15669 15671     5 
15670 15669 15672     5 
15671 15669 15672     5 
15669 15672 15673     5 
15669 15672 15674     5 
15669 15672 15675     5 
15673 15672 15674     5 
15673 15672 15675     5 
15674 15672 15675     5 
15672 15675 15676     5 
15672 15675 15677     5 
15672 15675 15678     5 
15676 15675 15677     5 
15676 15675 15678     5 
15677 15675 15678     5 
15680 15679 15683     5 
15680 15679 15687     5 
15680 15679 15691     5 
15683 15679 15687     5 
15683 15679 15691     5 
15687 15679 15691     5 
15679 15680 15681     5 
15679 15680 15682     5 
15679 15680 15695     5 
15681 15680 15682     5 
15681 15680 15695     5 
15682 15680 15695     5 
15679 15683 15684     5 
15679 15683 15685     5 
15679 15683 15686     5 
15684 15683 15685     5 
15684 15683 15686     5 
15685 15683 15686     5 
15679 15687 15688     5 
15679 15687 15689     5 
15679 15687 15690     5 
15688 15687 15689     5 
15688 15687 15690     5 
15689 15687 15690     5 
15679 15691 15692     5 
15679 15691 15693     5 
15679 15691 15694     5 
15692 15691 15693     5 
15692 15691 15694     5 
15693 15691 15694     5 
15680 15695 15696     5 
15680 15695 15697     5 
15680 15695 15701     5 
15696 15695 15697     5 
15696 15695 15701     5 
15697 15695 15701     5 
15699 15698 15700     5 
15699 15698 15701     5 
15699 15698 15702     5 
15700 15698 15701     5 
15700 15698 15702     5 
15701 15698 15702     5 
15695 15701 15698     5 
15698 15702 15703     5 
15702 15703 15704     5 
15702 15703 15705     5 
15702 15703 15706     5 
15704 15703 15705     5 
15704 15703 15706     5 
15705 15703 15706     5 
15703 15706 15707     5 
15703 15706 15708     5 
15703 15706 15714     5 
15707 15706 15708     5 
15707 15706 15714     5 
15708 15706 15714     5 
15706 15708 15709     5 
15708 15709 15710     5 
15708 15709 15711     5 
15710 15709 15711     5 
15709 15711 15712     5 
15709 15711 15713     5 
15709 15711 15723     5 
15712 15711 15713     5 
15712 15711 15723     5 
15713 15711 15723     5 
15706 15714 15715     5 
15706 15714 15716     5 
15706 15714 15717     5 
15715 15714 15716     5 
15715 15714 15717     5 
15716 15714 15717     5 
15714 15717 15718     5 
15717 15718 15719     5 
15717 15718 15720     5 
15719 15718 15720     5 
15718 15720 15721     5 
15718 15720 15722     5 
15718 15720 15770     5 
15721 15720 15722     5 
15721 15720 15770     5 
15722 15720 15770     5 
15711 15723 15724     5 
15711 15723 15725     5 
15711 15723 15726     5 
15724 15723 15725     5 
15724 15723 15726     5 
15725 15723 15726     5 
15723 15726 15727     5 
15723 15726 15728     5 
15723 15726 15729     5 
15727 15726 15728     5 
15727 15726 15729     5 
15728 15726 15729     5 
15726 15729 15730     5 
15726 15729 15731     5 
15726 15729 15732     5 
15730 15729 15731     5 
15730 15729 15732     5 
15731 15729 15732     5 
15729 15732 15733     5 
15729 15732 15734     5 
15729 15732 15735     5 
15733 15732 15734     5 
15733 15732 15735     5 
15734 15732 15735     5 
15732 15735 15736     5 
15732 15735 15737     5 
15732 15735 15738     5 
15736 15735 15737     5 
15736 15735 15738     5 
15737 15735 15738     5 
15735 15738 15739     5 
15735 15738 15740     5 
15735 15738 15741     5 
15739 15738 15740     5 
15739 15738 15741     5 
15740 15738 15741     5 
15738 15741 15742     5 
15738 15741 15743     5 
15742 15741 15743     5 
15741 15743 15744     5 
15741 15743 15745     5 
15744 15743 15745     5 
15743 15745 15746     5 
15743 15745 15747     5 
15743 15745 15748     5 
15746 15745 15747     5 
15746 15745 15748     5 
15747 15745 15748     5 
15745 15748 15749     5 
15745 15748 15750     5 
15745 15748 15751     5 
15749 15748 15750     5 
15749 15748 15751     5 
15750 15748 15751     5 
15748 15751 15752     5 
15748 15751 15753     5 
15748 15751 15754     5 
15752 15751 15753     5 
15752 15751 15754     5 
15753 15751 15754     5 
15751 15754 15755     5 
15751 15754 15756     5 
15751 15754 15757     5 
15755 15754 15756     5 
15755 15754 15757     5 
15756 15754 15757     5 
15754 15757 15758     5 
15754 15757 15759     5 
15754 15757 15760     5 
15758 15757 15759     5 
15758 15757 15760     5 
15759 15757 15760     5 
15757 15760 15761     5 
15757 15760 15762     5 
15757 15760 15763     5 
15761 15760 15762     5 
15761 15760 15763     5 
15762 15760 15763     5 
15760 15763 15764     5 
15760 15763 15765     5 
15760 15763 15766     5 
15764 15763 15765     5 
15764 15763 15766     5 
15765 15763 15766     5 
15763 15766 15767     5 
15763 15766 15768     5 
15763 15766 15769     5 
15767 15766 15768     5 
15767 15766 15769     5 
15768 15766 15769     5 
15720 15770 15771     5 
15720 15770 15772     5 
15720 15770 15773     5 
15771 15770 15772     5 
15771 15770 15773     5 
15772 15770 15773     5 
15770 15773 15774     5 
15770 15773 15775     5 
15770 15773 15776     5 
15774 15773 15775     5 
15774 15773 15776     5 
15775 15773 15776     5 
15773 15776 15777     5 
15773 15776 15778     5 
15773 15776 15779     5 
15777 15776 15778     5 
15777 15776 15779     5 
15778 15776 15779     5 
15776 15779 15780     5 
15776 15779 15781     5 
15776 15779 15782     5 
15780 15779 15781     5 
15780 15779 15782     5 
15781 15779 15782     5 
15779 15782 15783     5 
15779 15782 15784     5 
15779 15782 15785     5 
15783 15782 15784     5 
15783 15782 15785     5 
15784 15782 15785     5 
15782 15785 15786     5 
15782 15785 15787     5 
15782 15785 15788     5 
15786 15785 15787     5 
15786 15785 15788     5 
15787 15785 15788     5 
15785 15788 15789     5 
15785 15788 15790     5 
15785 15788 15791     5 
15789 15788 15790     5 
15789 15788 15791     5 
15790 15788 15791     5 
15788 15791 15792     5 
15788 15791 15793     5 
15788 15791 15794     5 
15792 15791 15793     5 
15792 15791 15794     5 
15793 15791 15794     5 
15791 15794 15795     5 
15791 15794 15796     5 
15791 15794 15797     5 
15795 15794 15796     5 
15795 15794 15797     5 
15796 15794 15797     5 
15794 15797 15798     5 
15794 15797 15799     5 
15794 15797 15800     5 
15798 15797 15799     5 
15798 15797 15800     5 
15799 15797 15800     5 
15797 15800 15801     5 
15797 15800 15802     5 
15797 15800 15803     5 
15801 15800 15802     5 
15801 15800 15803     5 
15802 15800 15803     5 
15800 15803 15804     5 
15800 15803 15805     5 
15800 15803 15806     5 
15804 15803 15805     5 
15804 15803 15806     5 
15805 15803 15806     5 
15803 15806 15807     5 
15803 15806 15808     5 
15803 15806 15809     5 
15807 15806 15808     5 
15807 15806 15809     5 
15808 15806 15809     5 
15806 15809 15810     5 
15806 15809 15811     5 
15806 15809 15812     5 
15810 15809 15811     5 
15810 15809 15812     5 
15811 15809 15812     5 
15814 15813 15817     5 
15814 15813 15821     5 
15814 15813 15825     5 
15817 15813 15821     5 
15817 15813 15825     5 
15821 15813 15825     5 
15813 15814 15815     5 
15813 15814 15816     5 
15813 15814 15829     5 
15815 15814 15816     5 
15815 15814 15829     5 
15816 15814 15829     5 
15813 15817 15818     5 
15813 15817 15819     5 
15813 15817 15820     5 
15818 15817 15819     5 
15818 15817 15820     5 
15819 15817 15820     5 
15813 15821 15822     5 
15813 15821 15823     5 
15813 15821 15824     5 
15822 15821 15823     5 
15822 15821 15824     5 
15823 15821 15824     5 
15813 15825 15826     5 
15813 15825 15827     5 
15813 15825 15828     5 
15826 15825 15827     5 
15826 15825 15828     5 
15827 15825 15828     5 
15814 15829 15830     5 
15814 15829 15831     5 
15814 15829 15835     5 
15830 15829 15831     5 
15830 15829 15835     5 
15831 15829 15835     5 
15833 15832 15834     5 
15833 15832 15835     5 
15833 15832 15836     5 
15834 15832 15835     5 
15834 15832 15836     5 
15835 15832 15836     5 
15829 15835 15832     5 
15832 15836 15837     5 
15836 15837 15838     5 
15836 15837 15839     5 
15836 15837 15840     5 
15838 15837 15839     5 
15838 15837 15840     5 
15839 15837 15840     5 
15837 15840 15841     5 
15837 15840 15842     5 
15837 15840 15848     5 
15841 15840 15842     5 
15841 15840 15848     5 
15842 15840 15848     5 
15840 15842 15843     5 
15842 15843 15844     5 
15842 15843 15845     5 
15844 15843 15845     5 
15843 15845 15846     5 
15843 15845 15847     5 
15843 15845 15857     5 
15846 15845 15847     5 
15846 15845 15857     5 
15847 15845 15857     5 
15840 15848 15849     5 
15840 15848 15850     5 
15840 15848 15851     5 
15849 15848 15850     5 
15849 15848 15851     5 
15850 15848 15851     5 
15848 15851 15852     5 
15851 15852 15853     5 
15851 15852 15854     5 
15853 15852 15854     5 
15852 15854 15855     5 
15852 15854 15856     5 
15852 15854 15904     5 
15855 15854 15856     5 
15855 15854 15904     5 
15856 15854 15904     5 
15845 15857 15858     5 
15845 15857 15859     5 
15845 15857 15860     5 
15858 15857 15859     5 
15858 15857 15860     5 
15859 15857 15860     5 
15857 15860 15861     5 
15857 15860 15862     5 
15857 15860 15863     5 
15861 15860 15862     5 
15861 15860 15863     5 
15862 15860 15863     5 
15860 15863 15864     5 
15860 15863 15865     5 
15860 15863 15866     5 
15864 15863 15865     5 
15864 15863 15866     5 
15865 15863 15866     5 
15863 15866 15867     5 
15863 15866 15868     5 
15863 15866 15869     5 
15867 15866 15868     5 
15867 15866 15869     5 
15868 15866 15869     5 
15866 15869 15870     5 
15866 15869 15871     5 
15866 15869 15872     5 
15870 15869 15871     5 
15870 15869 15872     5 
15871 15869 15872     5 
15869 15872 15873     5 
15869 15872 15874     5 
15869 15872 15875     5 
15873 15872 15874     5 
15873 15872 15875     5 
15874 15872 15875     5 
15872 15875 15876     5 
15872 15875 15877     5 
15876 15875 15877     5 
15875 15877 15878     5 
15875 15877 15879     5 
15878 15877 15879     5 
15877 15879 15880     5 
15877 15879 15881     5 
15877 15879 15882     5 
15880 15879 15881     5 
15880 15879 15882     5 
15881 15879 15882     5 
15879 15882 15883     5 
15879 15882 15884     5 
15879 15882 15885     5 
15883 15882 15884     5 
15883 15882 15885     5 
15884 15882 15885     5 
15882 15885 15886     5 
15882 15885 15887     5 
15882 15885 15888     5 
15886 15885 15887     5 
15886 15885 15888     5 
15887 15885 15888     5 
15885 15888 15889     5 
15885 15888 15890     5 
15885 15888 15891     5 
15889 15888 15890     5 
15889 15888 15891     5 
15890 15888 15891     5 
15888 15891 15892     5 
15888 15891 15893     5 
15888 15891 15894     5 
15892 15891 15893     5 
15892 15891 15894     5 
15893 15891 15894     5 
15891 15894 15895     5 
15891 15894 15896     5 
15891 15894 15897     5 
15895 15894 15896     5 
15895 15894 15897     5 
15896 15894 15897     5 
15894 15897 15898     5 
15894 15897 15899     5 
15894 15897 15900     5 
15898 15897 15899     5 
15898 15897 15900     5 
15899 15897 15900     5 
15897 15900 15901     5 
15897 15900 15902     5 
15897 15900 15903     5 
15901 15900 15902     5 
15901 15900 15903     5 
15902 15900 15903     5 
15854 15904 15905     5 
15854 15904 15906     5 
15854 15904 15907     5 
15905 15904 15906     5 
15905 15904 15907     5 
15906 15904 15907     5 
15904 15907 15908     5 
15904 15907 15909     5 
15904 15907 15910     5 
15908 15907 15909     5 
15908 15907 15910     5 
15909 15907 15910     5 
15907 15910 15911     5 
15907 15910 15912     5 
15907 15910 15913     5 
15911 15910 15912     5 
15911 15910 15913     5 
15912 15910 15913     5 
15910 15913 15914     5 
15910 15913 15915     5 
15910 15913 15916     5 
15914 15913 15915     5 
15914 15913 15916     5 
15915 15913 15916     5 
15913 15916 15917     5 
15913 15916 15918     5 
15913 15916 15919     5 
15917 15916 15918     5 
15917 15916 15919     5 
15918 15916 15919     5 
15916 15919 15920     5 
15916 15919 15921     5 
15916 15919 15922     5 
15920 15919 15921     5 
15920 15919 15922     5 
15921 15919 15922     5 
15919 15922 15923     5 
15919 15922 15924     5 
15919 15922 15925     5 
15923 15922 15924     5 
15923 15922 15925     5 
15924 15922 15925     5 
15922 15925 15926     5 
15922 15925 15927     5 
15922 15925 15928     5 
15926 15925 15927     5 
15926 15925 15928     5 
15927 15925 15928     5 
15925 15928 15929     5 
15925 15928 15930     5 
15925 15928 15931     5 
15929 15928 15930     5 
15929 15928 15931     5 
15930 15928 15931     5 
15928 15931 15932     5 
15928 15931 15933     5 
15928 15931 15934     5 
15932 15931 15933     5 
15932 15931 15934     5 
15933 15931 15934     5 
15931 15934 15935     5 
15931 15934 15936     5 
15931 15934 15937     5 
15935 15934 15936     5 
15935 15934 15937     5 
15936 15934 15937     5 
15934 15937 15938     5 
15934 15937 15939     5 
15934 15937 15940     5 
15938 15937 15939     5 
15938 15937 15940     5 
15939 15937 15940     5 
15937 15940 15941     5 
15937 15940 15942     5 
15937 15940 15943     5 
15941 15940 15942     5 
15941 15940 15943     5 
15942 15940 15943     5 
15940 15943 15944     5 
15940 15943 15945     5 
15940 15943 15946     5 
15944 15943 15945     5 
15944 15943 15946     5 
15945 15943 15946     5 
15948 15947 15951     5 
15948 15947 15955     5 
15948 15947 15959     5 
15951 15947 15955     5 
15951 15947 15959     5 
15955 15947 15959     5 
15947 15948 15949     5 
15947 15948 15950     5 
15947 15948 15963     5 
15949 15948 15950     5 
15949 15948 15963     5 
15950 15948 15963     5 
15947 15951 15952     5 
15947 15951 15953     5 
15947 15951 15954     5 
15952 15951 15953     5 
15952 15951 15954     5 
15953 15951 15954     5 
15947 15955 15956     5 
15947 15955 15957     5 
15947 15955 15958     5 
15956 15955 15957     5 
15956 15955 15958     5 
15957 15955 15958     5 
15947 15959 15960     5 
15947 15959 15961     5 
15947 15959 15962     5 
15960 15959 15961     5 
15960 15959 15962     5 
15961 15959 15962     5 
15948 15963 15964     5 
15948 15963 15965     5 
15948 15963 15969     5 
15964 15963 15965     5 
15964 15963 15969     5 
15965 15963 15969     5 
15967 15966 15968     5 
15967 15966 15969     5 
15967 15966 15970     5 
15968 15966 15969     5 
15968 15966 15970     5 
15969 15966 15970     5 
15963 15969 15966     5 
15966 15970 15971     5 
15970 15971 15972     5 
15970 15971 15973     5 
15970 15971 15974     5 
15972 15971 15973     5 
15972 15971 15974     5 
15973 15971 15974     5 
15971 15974 15975     5 
15971 15974 15976     5 
15971 15974 15982     5 
15975 15974 15976     5 
15975 15974 15982     5 
15976 15974 15982     5 
15974 15976 15977     5 
15976 15977 15978     5 
15976 15977 15979     5 
15978 15977 15979     5 
15977 15979 15980     5 
15977 15979 15981     5 
15977 15979 15991     5 
15980 15979 15981     5 
15980 15979 15991     5 
15981 15979 15991     5 
15974 15982 15983     5 
15974 15982 15984     5 
15974 15982 15985     5 
15983 15982 15984     5 
15983 15982 15985     5 
15984 15982 15985     5 
15982 15985 15986     5 
15985 15986 15987     5 
15985 15986 15988     5 
15987 15986 15988     5 
15986 15988 15989     5 
15986 15988 15990     5 
15986 15988 16038     5 
15989 15988 15990     5 
15989 15988 16038     5 
15990 15988 16038     5 
15979 15991 15992     5 
15979 15991 15993     5 
15979 15991 15994     5 
15992 15991 15993     5 
15992 15991 15994     5 
15993 15991 15994     5 
15991 15994 15995     5 
15991 15994 15996     5 
15991 15994 15997     5 
15995 15994 15996     5 
15995 15994 15997     5 
15996 15994 15997     5 
15994 15997 15998     5 
15994 15997 15999     5 
15994 15997 16000     5 
15998 15997 15999     5 
15998 15997 16000     5 
15999 15997 16000     5 
15997 16000 16001     5 
15997 16000 16002     5 
15997 16000 16003     5 
16001 16000 16002     5 
16001 16000 16003     5 
16002 16000 16003     5 
16000 16003 16004     5 
16000 16003 16005     5 
16000 16003 16006     5 
16004 16003 16005     5 
16004 16003 16006     5 
16005 16003 16006     5 
16003 16006 16007     5 
16003 16006 16008     5 
16003 16006 16009     5 
16007 16006 16008     5 
16007 16006 16009     5 
16008 16006 16009     5 
16006 16009 16010     5 
16006 16009 16011     5 
16010 16009 16011     5 
16009 16011 16012     5 
16009 16011 16013     5 
16012 16011 16013     5 
16011 16013 16014     5 
16011 16013 16015     5 
16011 16013 16016     5 
16014 16013 16015     5 
16014 16013 16016     5 
16015 16013 16016     5 
16013 16016 16017     5 
16013 16016 16018     5 
16013 16016 16019     5 
16017 16016 16018     5 
16017 16016 16019     5 
16018 16016 16019     5 
16016 16019 16020     5 
16016 16019 16021     5 
16016 16019 16022     5 
16020 16019 16021     5 
16020 16019 16022     5 
16021 16019 16022     5 
16019 16022 16023     5 
16019 16022 16024     5 
16019 16022 16025     5 
16023 16022 16024     5 
16023 16022 16025     5 
16024 16022 16025     5 
16022 16025 16026     5 
16022 16025 16027     5 
16022 16025 16028     5 
16026 16025 16027     5 
16026 16025 16028     5 
16027 16025 16028     5 
16025 16028 16029     5 
16025 16028 16030     5 
16025 16028 16031     5 
16029 16028 16030     5 
16029 16028 16031     5 
16030 16028 16031     5 
16028 16031 16032     5 
16028 16031 16033     5 
16028 16031 16034     5 
16032 16031 16033     5 
16032 16031 16034     5 
16033 16031 16034     5 
16031 16034 16035     5 
16031 16034 16036     5 
16031 16034 16037     5 
16035 16034 16036     5 
16035 16034 16037     5 
16036 16034 16037     5 
15988 16038 16039     5 
15988 16038 16040     5 
15988 16038 16041     5 
16039 16038 16040     5 
16039 16038 16041     5 
16040 16038 16041     5 
16038 16041 16042     5 
16038 16041 16043     5 
16038 16041 16044     5 
16042 16041 16043     5 
16042 16041 16044     5 
16043 16041 16044     5 
16041 16044 16045     5 
16041 16044 16046     5 
16041 16044 16047     5 
16045 16044 16046     5 
16045 16044 16047     5 
16046 16044 16047     5 
16044 16047 16048     5 
16044 16047 16049     5 
16044 16047 16050     5 
16048 16047 16049     5 
16048 16047 16050     5 
16049 16047 16050     5 
16047 16050 16051     5 
16047 16050 16052     5 
16047 16050 16053     5 
16051 16050 16052     5 
16051 16050 16053     5 
16052 16050 16053     5 
16050 16053 16054     5 
16050 16053 16055     5 
16050 16053 16056     5 
16054 16053 16055     5 
16054 16053 16056     5 
16055 16053 16056     5 
16053 16056 16057     5 
16053 16056 16058     5 
16053 16056 16059     5 
16057 16056 16058     5 
16057 16056 16059     5 
16058 16056 16059     5 
16056 16059 16060     5 
16056 16059 16061     5 
16056 16059 16062     5 
16060 16059 16061     5 
16060 16059 16062     5 
16061 16059 16062     5 
16059 16062 16063     5 
16059 16062 16064     5 
16059 16062 16065     5 
16063 16062 16064     5 
16063 16062 16065     5 
16064 16062 16065     5 
16062 16065 16066     5 
16062 16065 16067     5 
16062 16065 16068     5 
16066 16065 16067     5 
16066 16065 16068     5 
16067 16065 16068     5 
16065 16068 16069     5 
16065 16068 16070     5 
16065 16068 16071     5 
16069 16068 16070     5 
16069 16068 16071     5 
16070 16068 16071     5 
16068 16071 16072     5 
16068 16071 16073     5 
16068 16071 16074     5 
16072 16071 16073     5 
16072 16071 16074     5 
16073 16071 16074     5 
16071 16074 16075     5 
16071 16074 16076     5 
16071 16074 16077     5 
16075 16074 16076     5 
16075 16074 16077     5 
16076 16074 16077     5 
16074 16077 16078     5 
16074 16077 16079     5 
16074 16077 16080     5 
16078 16077 16079     5 
16078 16077 16080     5 
16079 16077 16080     5 
16082 16081 16085     5 
16082 16081 16089     5 
16082 16081 16093     5 
16085 16081 16089     5 
16085 16081 16093     5 
16089 16081 16093     5 
16081 16082 16083     5 
16081 16082 16084     5 
16081 16082 16097     5 
16083 16082 16084     5 
16083 16082 16097     5 
16084 16082 16097     5 
16081 16085 16086     5 
16081 16085 16087     5 
16081 16085 16088     5 
16086 16085 16087     5 
16086 16085 16088     5 
16087 16085 16088     5 
16081 16089 16090     5 
16081 16089 16091     5 
16081 16089 16092     5 
16090 16089 16091     5 
16090 16089 16092     5 
16091 16089 16092     5 
16081 16093 16094     5 
16081 16093 16095     5 
16081 16093 16096     5 
16094 16093 16095     5 
16094 16093 16096     5 
16095 16093 16096     5 
16082 16097 16098     5 
16082 16097 16099     5 
16082 16097 16103     5 
16098 16097 16099     5 
16098 16097 16103     5 
16099 16097 16103     5 
16101 16100 16102     5 
16101 16100 16103     5 
16101 16100 16104     5 
16102 16100 16103     5 
16102 16100 16104     5 
16103 16100 16104     5 
16097 16103 16100     5 
16100 16104 16105     5 
16104 16105 16106     5 
16104 16105 16107     5 
16104 16105 16108     5 
16106 16105 16107     5 
16106 16105 16108     5 
16107 16105 16108     5 
16105 16108 16109     5 
16105 16108 16110     5 
16105 16108 16116     5 
16109 16108 16110     5 
16109 16108 16116     5 
16110 16108 16116     5 
16108 16110 16111     5 
16110 16111 16112     5 
16110 16111 16113     5 
16112 16111 16113     5 
16111 16113 16114     5 
16111 16113 16115     5 
16111 16113 16125     5 
16114 16113 16115     5 
16114 16113 16125     5 
16115 16113 16125     5 
16108 16116 16117     5 
16108 16116 16118     5 
16108 16116 16119     5 
16117 16116 16118     5 
16117 16116 16119     5 
16118 16116 16119     5 
16116 16119 16120     5 
16119 16120 16121     5 
16119 16120 16122     5 
16121 16120 16122     5 
16120 16122 16123     5 
16120 16122 16124     5 
16120 16122 16172     5 
16123 16122 16124     5 
16123 16122 16172     5 
16124 16122 16172     5 
16113 16125 16126     5 
16113 16125 16127     5 
16113 16125 16128     5 
16126 16125 16127     5 
16126 16125 16128     5 
16127 16125 16128     5 
16125 16128 16129     5 
16125 16128 16130     5 
16125 16128 16131     5 
16129 16128 16130     5 
16129 16128 16131     5 
16130 16128 16131     5 
16128 16131 16132     5 
16128 16131 16133     5 
16128 16131 16134     5 
16132 16131 16133     5 
16132 16131 16134     5 
16133 16131 16134     5 
16131 16134 16135     5 
16131 16134 16136     5 
16131 16134 16137     5 
16135 16134 16136     5 
16135 16134 16137     5 
16136 16134 16137     5 
16134 16137 16138     5 
16134 16137 16139     5 
16134 16137 16140     5 
16138 16137 16139     5 
16138 16137 16140     5 
16139 16137 16140     5 
16137 16140 16141     5 
16137 16140 16142     5 
16137 16140 16143     5 
16141 16140 16142     5 
16141 16140 16143     5 
16142 16140 16143     5 
16140 16143 16144     5 
16140 16143 16145     5 
16144 16143 16145     5 
16143 16145 16146     5 
16143 16145 16147     5 
16146 16145 16147     5 
16145 16147 16148     5 
16145 16147 16149     5 
16145 16147 16150     5 
16148 16147 16149     5 
16148 16147 16150     5 
16149 16147 16150     5 
16147 16150 16151     5 
16147 16150 16152     5 
16147 16150 16153     5 
16151 16150 16152     5 
16151 16150 16153     5 
16152 16150 16153     5 
16150 16153 16154     5 
16150 16153 16155     5 
16150 16153 16156     5 
16154 16153 16155     5 
16154 16153 16156     5 
16155 16153 16156     5 
16153 16156 16157     5 
16153 16156 16158     5 
16153 16156 16159     5 
16157 16156 16158     5 
16157 16156 16159     5 
16158 16156 16159     5 
16156 16159 16160     5 
16156 16159 16161     5 
16156 16159 16162     5 
16160 16159 16161     5 
16160 16159 16162     5 
16161 16159 16162     5 
16159 16162 16163     5 
16159 16162 16164     5 
16159 16162 16165     5 
16163 16162 16164     5 
16163 16162 16165     5 
16164 16162 16165     5 
16162 16165 16166     5 
16162 16165 16167     5 
16162 16165 16168     5 
16166 16165 16167     5 
16166 16165 16168     5 
16167 16165 16168     5 
16165 16168 16169     5 
16165 16168 16170     5 
16165 16168 16171     5 
16169 16168 16170     5 
16169 16168 16171     5 
16170 16168 16171     5 
16122 16172 16173     5 
16122 16172 16174     5 
16122 16172 16175     5 
16173 16172 16174     5 
16173 16172 16175     5 
16174 16172 16175     5 
16172 16175 16176     5 
16172 16175 16177     5 
16172 16175 16178     5 
16176 16175 16177     5 
16176 16175 16178     5 
16177 16175 16178     5 
16175 16178 16179     5 
16175 16178 16180     5 
16175 16178 16181     5 
16179 16178 16180     5 
16179 16178 16181     5 
16180 16178 16181     5 
16178 16181 16182     5 
16178 16181 16183     5 
16178 16181 16184     5 
16182 16181 16183     5 
16182 16181 16184     5 
16183 16181 16184     5 
16181 16184 16185     5 
16181 16184 16186     5 
16181 16184 16187     5 
16185 16184 16186     5 
16185 16184 16187     5 
16186 16184 16187     5 
16184 16187 16188     5 
16184 16187 16189     5 
16184 16187 16190     5 
16188 16187 16189     5 
16188 16187 16190     5 
16189 16187 16190     5 
16187 16190 16191     5 
16187 16190 16192     5 
16187 16190 16193     5 
16191 16190 16192     5 
16191 16190 16193     5 
16192 16190 16193     5 
16190 16193 16194     5 
16190 16193 16195     5 
16190 16193 16196     5 
16194 16193 16195     5 
16194 16193 16196     5 
16195 16193 16196     5 
16193 16196 16197     5 
16193 16196 16198     5 
16193 16196 16199     5 
16197 16196 16198     5 
16197 16196 16199     5 
16198 16196 16199     5 
16196 16199 16200     5 
16196 16199 16201     5 
16196 16199 16202     5 
16200 16199 16201     5 
16200 16199 16202     5 
16201 16199 16202     5 
16199 16202 16203     5 
16199 16202 16204     5 
16199 16202 16205     5 
16203 16202 16204     5 
16203 16202 16205     5 
16204 16202 16205     5 
16202 16205 16206     5 
16202 16205 16207     5 
16202 16205 16208     5 
16206 16205 16207     5 
16206 16205 16208     5 
16207 16205 16208     5 
16205 16208 16209     5 
16205 16208 16210     5 
16205 16208 16211     5 
16209 16208 16210     5 
16209 16208 16211     5 
16210 16208 16211     5 
16208 16211 16212     5 
16208 16211 16213     5 
16208 16211 16214     5 
16212 16211 16213     5 
16212 16211 16214     5 
16213 16211 16214     5 
16216 16215 16219     5 
16216 16215 16223     5 
16216 16215 16227     5 
16219 16215 16223     5 
16219 16215 16227     5 
16223 16215 16227     5 
16215 16216 16217     5 
16215 16216 16218     5 
16215 16216 16231     5 
16217 16216 16218     5 
16217 16216 16231     5 
16218 16216 16231     5 
16215 16219 16220     5 
16215 16219 16221     5 
16215 16219 16222     5 
16220 16219 16221     5 
16220 16219 16222     5 
16221 16219 16222     5 
16215 16223 16224     5 
16215 16223 16225     5 
16215 16223 16226     5 
16224 16223 16225     5 
16224 16223 16226     5 
16225 16223 16226     5 
16215 16227 16228     5 
16215 16227 16229     5 
16215 16227 16230     5 
16228 16227 16229     5 
16228 16227 16230     5 
16229 16227 16230     5 
16216 16231 16232     5 
16216 16231 16233     5 
16216 16231 16237     5 
16232 16231 16233     5 
16232 16231 16237     5 
16233 16231 16237     5 
16235 16234 16236     5 
16235 16234 16237     5 
16235 16234 16238     5 
16236 16234 16237     5 
16236 16234 16238     5 
16237 16234 16238     5 
16231 16237 16234     5 
16234 16238 16239     5 
16238 16239 16240     5 
16238 16239 16241     5 
16238 16239 16242     5 
16240 16239 16241     5 
16240 16239 16242     5 
16241 16239 16242     5 
16239 16242 16243     5 
16239 16242 16244     5 
16239 16242 16250     5 
16243 16242 16244     5 
16243 16242 16250     5 
16244 16242 16250     5 
16242 16244 16245     5 
16244 16245 16246     5 
16244 16245 16247     5 
16246 16245 16247     5 
16245 16247 16248     5 
16245 16247 16249     5 
16245 16247 16259     5 
16248 16247 16249     5 
16248 16247 16259     5 
16249 16247 16259     5 
16242 16250 16251     5 
16242 16250 16252     5 
16242 16250 16253     5 
16251 16250 16252     5 
16251 16250 16253     5 
16252 16250 16253     5 
16250 16253 16254     5 
16253 16254 16255     5 
16253 16254 16256     5 
16255 16254 16256     5 
16254 16256 16257     5 
16254 16256 16258     5 
16254 16256 16306     5 
16257 16256 16258     5 
16257 16256 16306     5 
16258 16256 16306     5 
16247 16259 16260     5 
16247 16259 16261     5 
16247 16259 16262     5 
16260 16259 16261     5 
16260 16259 16262     5 
16261 16259 16262     5 
16259 16262 16263     5 
16259 16262 16264     5 
16259 16262 16265     5 
16263 16262 16264     5 
16263 16262 16265     5 
16264 16262 16265     5 
16262 16265 16266     5 
16262 16265 16267     5 
16262 16265 16268     5 
16266 16265 16267     5 
16266 16265 16268     5 
16267 16265 16268     5 
16265 16268 16269     5 
16265 16268 16270     5 
16265 16268 16271     5 
16269 16268 16270     5 
16269 16268 16271     5 
16270 16268 16271     5 
16268 16271 16272     5 
16268 16271 16273     5 
16268 16271 16274     5 
16272 16271 16273     5 
16272 16271 16274     5 
16273 16271 16274     5 
16271 16274 16275     5 
16271 16274 16276     5 
16271 16274 16277     5 
16275 16274 16276     5 
16275 16274 16277     5 
16276 16274 16277     5 
16274 16277 16278     5 
16274 16277 16279     5 
16278 16277 16279     5 
16277 16279 16280     5 
16277 16279 16281     5 
16280 16279 16281     5 
16279 16281 16282     5 
16279 16281 16283     5 
16279 16281 16284     5 
16282 16281 16283     5 
16282 16281 16284     5 
16283 16281 16284     5 
16281 16284 16285     5 
16281 16284 16286     5 
16281 16284 16287     5 
16285 16284 16286     5 
16285 16284 16287     5 
16286 16284 16287     5 
16284 16287 16288     5 
16284 16287 16289     5 
16284 16287 16290     5 
16288 16287 16289     5 
16288 16287 16290     5 
16289 16287 16290     5 
16287 16290 16291     5 
16287 16290 16292     5 
16287 16290 16293     5 
16291 16290 16292     5 
16291 16290 16293     5 
16292 16290 16293     5 
16290 16293 16294     5 
16290 16293 16295     5 
16290 16293 16296     5 
16294 16293 16295     5 
16294 16293 16296     5 
16295 16293 16296     5 
16293 16296 16297     5 
16293 16296 16298     5 
16293 16296 16299     5 
16297 16296 16298     5 
16297 16296 16299     5 
16298 16296 16299     5 
16296 16299 16300     5 
16296 16299 16301     5 
16296 16299 16302     5 
16300 16299 16301     5 
16300 16299 16302     5 
16301 16299 16302     5 
16299 16302 16303     5 
16299 16302 16304     5 
16299 16302 16305     5 
16303 16302 16304     5 
16303 16302 16305     5 
16304 16302 16305     5 
16256 16306 16307     5 
16256 16306 16308     5 
16256 16306 16309     5 
16307 16306 16308     5 
16307 16306 16309     5 
16308 16306 16309     5 
16306 16309 16310     5 
16306 16309 16311     5 
16306 16309 16312     5 
16310 16309 16311     5 
16310 16309 16312     5 
16311 16309 16312     5 
16309 16312 16313     5 
16309 16312 16314     5 
16309 16312 16315     5 
16313 16312 16314     5 
16313 16312 16315     5 
16314 16312 16315     5 
16312 16315 16316     5 
16312 16315 16317     5 
16312 16315 16318     5 
16316 16315 16317     5 
16316 16315 16318     5 
16317 16315 16318     5 
16315 16318 16319     5 
16315 16318 16320     5 
16315 16318 16321     5 
16319 16318 16320     5 
16319 16318 16321     5 
16320 16318 16321     5 
16318 16321 16322     5 
16318 16321 16323     5 
16318 16321 16324     5 
16322 16321 16323     5 
16322 16321 16324     5 
16323 16321 16324     5 
16321 16324 16325     5 
16321 16324 16326     5 
16321 16324 16327     5 
16325 16324 16326     5 
16325 16324 16327     5 
16326 16324 16327     5 
16324 16327 16328     5 
16324 16327 16329     5 
16324 16327 16330     5 
16328 16327 16329     5 
16328 16327 16330     5 
16329 16327 16330     5 
16327 16330 16331     5 
16327 16330 16332     5 
16327 16330 16333     5 
16331 16330 16332     5 
16331 16330 16333     5 
16332 16330 16333     5 
16330 16333 16334     5 
16330 16333 16335     5 
16330 16333 16336     5 
16334 16333 16335     5 
16334 16333 16336     5 
16335 16333 16336     5 
16333 16336 16337     5 
16333 16336 16338     5 
16333 16336 16339     5 
16337 16336 16338     5 
16337 16336 16339     5 
16338 16336 16339     5 
16336 16339 16340     5 
16336 16339 16341     5 
16336 16339 16342     5 
16340 16339 16341     5 
16340 16339 16342     5 
16341 16339 16342     5 
16339 16342 16343     5 
16339 16342 16344     5 
16339 16342 16345     5 
16343 16342 16344     5 
16343 16342 16345     5 
16344 16342 16345     5 
16342 16345 16346     5 
16342 16345 16347     5 
16342 16345 16348     5 
16346 16345 16347     5 
16346 16345 16348     5 
16347 16345 16348     5 
16350 16349 16353     5 
16350 16349 16357     5 
16350 16349 16361     5 
16353 16349 16357     5 
16353 16349 16361     5 
16357 16349 16361     5 
16349 16350 16351     5 
16349 16350 16352     5 
16349 16350 16365     5 
16351 16350 16352     5 
16351 16350 16365     5 
16352 16350 16365     5 
16349 16353 16354     5 
16349 16353 16355     5 
16349 16353 16356     5 
16354 16353 16355     5 
16354 16353 16356     5 
16355 16353 16356     5 
16349 16357 16358     5 
16349 16357 16359     5 
16349 16357 16360     5 
16358 16357 16359     5 
16358 16357 16360     5 
16359 16357 16360     5 
16349 16361 16362     5 
16349 16361 16363     5 
16349 16361 16364     5 
16362 16361 16363     5 
16362 16361 16364     5 
16363 16361 16364     5 
16350 16365 16366     5 
16350 16365 16367     5 
16350 16365 16371     5 
16366 16365 16367     5 
16366 16365 16371     5 
16367 16365 16371     5 
16369 16368 16370     5 
16369 16368 16371     5 
16369 16368 16372     5 
16370 16368 16371     5 
16370 16368 16372     5 
16371 16368 16372     5 
16365 16371 16368     5 
16368 16372 16373     5 
16372 16373 16374     5 
16372 16373 16375     5 
16372 16373 16376     5 
16374 16373 16375     5 
16374 16373 16376     5 
16375 16373 16376     5 
16373 16376 16377     5 
16373 16376 16378     5 
16373 16376 16384     5 
16377 16376 16378     5 
16377 16376 16384     5 
16378 16376 16384     5 
16376 16378 16379     5 
16378 16379 16380     5 
16378 16379 16381     5 
16380 16379 16381     5 
16379 16381 16382     5 
16379 16381 16383     5 
16379 16381 16393     5 
16382 16381 16383     5 
16382 16381 16393     5 
16383 16381 16393     5 
16376 16384 16385     5 
16376 16384 16386     5 
16376 16384 16387     5 
16385 16384 16386     5 
16385 16384 16387     5 
16386 16384 16387     5 
16384 16387 16388     5 
16387 16388 16389     5 
16387 16388 16390     5 
16389 16388 16390     5 
16388 16390 16391     5 
16388 16390 16392     5 
16388 16390 16440     5 
16391 16390 16392     5 
16391 16390 16440     5 
16392 16390 16440     5 
16381 16393 16394     5 
16381 16393 16395     5 
16381 16393 16396     5 
16394 16393 16395     5 
16394 16393 16396     5 
16395 16393 16396     5 
16393 16396 16397     5 
16393 16396 16398     5 
16393 16396 16399     5 
16397 16396 16398     5 
16397 16396 16399     5 
16398 16396 16399     5 
16396 16399 16400     5 
16396 16399 16401     5 
16396 16399 16402     5 
16400 16399 16401     5 
16400 16399 16402     5 
16401 16399 16402     5 
16399 16402 16403     5 
16399 16402 16404     5 
16399 16402 16405     5 
16403 16402 16404     5 
16403 16402 16405     5 
16404 16402 16405     5 
16402 16405 16406     5 
16402 16405 16407     5 
16402 16405 16408     5 
16406 16405 16407     5 
16406 16405 16408     5 
16407 16405 16408     5 
16405 16408 16409     5 
16405 16408 16410     5 
16405 16408 16411     5 
16409 16408 16410     5 
16409 16408 16411     5 
16410 16408 16411     5 
16408 16411 16412     5 
16408 16411 16413     5 
16412 16411 16413     5 
16411 16413 16414     5 
16411 16413 16415     5 
16414 16413 16415     5 
16413 16415 16416     5 
16413 16415 16417     5 
16413 16415 16418     5 
16416 16415 16417     5 
16416 16415 16418     5 
16417 16415 16418     5 
16415 16418 16419     5 
16415 16418 16420     5 
16415 16418 16421     5 
16419 16418 16420     5 
16419 16418 16421     5 
16420 16418 16421     5 
16418 16421 16422     5 
16418 16421 16423     5 
16418 16421 16424     5 
16422 16421 16423     5 
16422 16421 16424     5 
16423 16421 16424     5 
16421 16424 16425     5 
16421 16424 16426     5 
16421 16424 16427     5 
16425 16424 16426     5 
16425 16424 16427     5 
16426 16424 16427     5 
16424 16427 16428     5 
16424 16427 16429     5 
16424 16427 16430     5 
16428 16427 16429     5 
16428 16427 16430     5 
16429 16427 16430     5 
16427 16430 16431     5 
16427 16430 16432     5 
16427 16430 16433     5 
16431 16430 16432     5 
16431 16430 16433     5 
16432 16430 16433     5 
16430 16433 16434     5 
16430 16433 16435     5 
16430 16433 16436     5 
16434 16433 16435     5 
16434 16433 16436     5 
16435 16433 16436     5 
16433 16436 16437     5 
16433 16436 16438     5 
16433 16436 16439     5 
16437 16436 16438     5 
16437 16436 16439     5 
16438 16436 16439     5 
16390 16440 16441     5 
16390 16440 16442     5 
16390 16440 16443     5 
16441 16440 16442     5 
16441 16440 16443     5 
16442 16440 16443     5 
16440 16443 16444     5 
16440 16443 16445     5 
16440 16443 16446     5 
16444 16443 16445     5 
16444 16443 16446     5 
16445 16443 16446     5 
16443 16446 16447     5 
16443 16446 16448     5 
16443 16446 16449     5 
16447 16446 16448     5 
16447 16446 16449     5 
16448 16446 16449     5 
16446 16449 16450     5 
16446 16449 16451     5 
16446 16449 16452     5 
16450 16449 16451     5 
16450 16449 16452     5 
16451 16449 16452     5 
16449 16452 16453     5 
16449 16452 16454     5 
16449 16452 16455     5 
16453 16452 16454     5 
16453 16452 16455     5 
16454 16452 16455     5 
16452 16455 16456     5 
16452 16455 16457     5 
16452 16455 16458     5 
16456 16455 16457     5 
16456 16455 16458     5 
16457 16455 16458     5 
16455 16458 16459     5 
16455 16458 16460     5 
16455 16458 16461     5 
16459 16458 16460     5 
16459 16458 16461     5 
16460 16458 16461     5 
16458 16461 16462     5 
16458 16461 16463     5 
16458 16461 16464     5 
16462 16461 16463     5 
16462 16461 16464     5 
16463 16461 16464     5 
16461 16464 16465     5 
16461 16464 16466     5 
16461 16464 16467     5 
16465 16464 16466     5 
16465 16464 16467     5 
16466 16464 16467     5 
16464 16467 16468     5 
16464 16467 16469     5 
16464 16467 16470     5 
16468 16467 16469     5 
16468 16467 16470     5 
16469 16467 16470     5 
16467 16470 16471     5 
16467 16470 16472     5 
16467 16470 16473     5 
16471 16470 16472     5 
16471 16470 16473     5 
16472 16470 16473     5 
16470 16473 16474     5 
16470 16473 16475     5 
16470 16473 16476     5 
16474 16473 16475     5 
16474 16473 16476     5 
16475 16473 16476     5 
16473 16476 16477     5 
16473 16476 16478     5 
16473 16476 16479     5 
16477 16476 16478     5 
16477 16476 16479     5 
16478 16476 16479     5 
16476 16479 16480     5 
16476 16479 16481     5 
16476 16479 16482     5 
16480 16479 16481     5 
16480 16479 16482     5 
16481 16479 16482     5 
16484 16483 16487     5 
16484 16483 16491     5 
16484 16483 16495     5 
16487 16483 16491     5 
16487 16483 16495     5 
16491 16483 16495     5 
16483 16484 16485     5 
16483 16484 16486     5 
16483 16484 16499     5 
16485 16484 16486     5 
16485 16484 16499     5 
16486 16484 16499     5 
16483 16487 16488     5 
16483 16487 16489     5 
16483 16487 16490     5 
16488 16487 16489     5 
16488 16487 16490     5 
16489 16487 16490     5 
16483 16491 16492     5 
16483 16491 16493     5 
16483 16491 16494     5 
16492 16491 16493     5 
16492 16491 16494     5 
16493 16491 16494     5 
16483 16495 16496     5 
16483 16495 16497     5 
16483 16495 16498     5 
16496 16495 16497     5 
16496 16495 16498     5 
16497 16495 16498     5 
16484 16499 16500     5 
16484 16499 16501     5 
16484 16499 16505     5 
16500 16499 16501     5 
16500 16499 16505     5 
16501 16499 16505     5 
16503 16502 16504     5 
16503 16502 16505     5 
16503 16502 16506     5 
16504 16502 16505     5 
16504 16502 16506     5 
16505 16502 16506     5 
16499 16505 16502     5 
16502 16506 16507     5 
16506 16507 16508     5 
16506 16507 16509     5 
16506 16507 16510     5 
16508 16507 16509     5 
16508 16507 16510     5 
16509 16507 16510     5 
16507 16510 16511     5 
16507 16510 16512     5 
16507 16510 16518     5 
16511 16510 16512     5 
16511 16510 16518     5 
16512 16510 16518     5 
16510 16512 16513     5 
16512 16513 16514     5 
16512 16513 16515     5 
16514 16513 16515     5 
16513 16515 16516     5 
16513 16515 16517     5 
16513 16515 16527     5 
16516 16515 16517     5 
16516 16515 16527     5 
16517 16515 16527     5 
16510 16518 16519     5 
16510 16518 16520     5 
16510 16518 16521     5 
16519 16518 16520     5 
16519 16518 16521     5 
16520 16518 16521     5 
16518 16521 16522     5 
16521 16522 16523     5 
16521 16522 16524     5 
16523 16522 16524     5 
16522 16524 16525     5 
16522 16524 16526     5 
16522 16524 16574     5 
16525 16524 16526     5 
16525 16524 16574     5 
16526 16524 16574     5 
16515 16527 16528     5 
16515 16527 16529     5 
16515 16527 16530     5 
16528 16527 16529     5 
16528 16527 16530     5 
16529 16527 16530     5 
16527 16530 16531     5 
16527 16530 16532     5 
16527 16530 16533     5 
16531 16530 16532     5 
16531 16530 16533     5 
16532 16530 16533     5 
16530 16533 16534     5 
16530 16533 16535     5 
16530 16533 16536     5 
16534 16533 16535     5 
16534 16533 16536     5 
16535 16533 16536     5 
16533 16536 16537     5 
16533 16536 16538     5 
16533 16536 16539     5 
16537 16536 16538     5 
16537 16536 16539     5 
16538 16536 16539     5 
16536 16539 16540     5 
16536 16539 16541     5 
16536 16539 16542     5 
16540 16539 16541     5 
16540 16539 16542     5 
16541 16539 16542     5 
16539 16542 16543     5 
16539 16542 16544     5 
16539 16542 16545     5 
16543 16542 16544     5 
16543 16542 16545     5 
16544 16542 16545     5 
16542 16545 16546     5 
16542 16545 16547     5 
16546 16545 16547     5 
16545 16547 16548     5 
16545 16547 16549     5 
16548 16547 16549     5 
16547 16549 16550     5 
16547 16549 16551     5 
16547 16549 16552     5 
16550 16549 16551     5 
16550 16549 16552     5 
16551 16549 16552     5 
16549 16552 16553     5 
16549 16552 16554     5 
16549 16552 16555     5 
16553 16552 16554     5 
16553 16552 16555     5 
16554 16552 16555     5 
16552 16555 16556     5 
16552 16555 16557     5 
16552 16555 16558     5 
16556 16555 16557     5 
16556 16555 16558     5 
16557 16555 16558     5 
16555 16558 16559     5 
16555 16558 16560     5 
16555 16558 16561     5 
16559 16558 16560     5 
16559 16558 16561     5 
16560 16558 16561     5 
16558 16561 16562     5 
16558 16561 16563     5 
16558 16561 16564     5 
16562 16561 16563     5 
16562 16561 16564     5 
16563 16561 16564     5 
16561 16564 16565     5 
16561 16564 16566     5 
16561 16564 16567     5 
16565 16564 16566     5 
16565 16564 16567     5 
16566 16564 16567     5 
16564 16567 16568     5 
16564 16567 16569     5 
16564 16567 16570     5 
16568 16567 16569     5 
16568 16567 16570     5 
16569 16567 16570     5 
16567 16570 16571     5 
16567 16570 16572     5 
16567 16570 16573     5 
16571 16570 16572     5 
16571 16570 16573     5 
16572 16570 16573     5 
16524 16574 16575     5 
16524 16574 16576     5 
16524 16574 16577     5 
16575 16574 16576     5 
16575 16574 16577     5 
16576 16574 16577     5 
16574 16577 16578     5 
16574 16577 16579     5 
16574 16577 16580     5 
16578 16577 16579     5 
16578 16577 16580     5 
16579 16577 16580     5 
16577 16580 16581     5 
16577 16580 16582     5 
16577 16580 16583     5 
16581 16580 16582     5 
16581 16580 16583     5 
16582 16580 16583     5 
16580 16583 16584     5 
16580 16583 16585     5 
16580 16583 16586     5 
16584 16583 16585     5 
16584 16583 16586     5 
16585 16583 16586     5 
16583 16586 16587     5 
16583 16586 16588     5 
16583 16586 16589     5 
16587 16586 16588     5 
16587 16586 16589     5 
16588 16586 16589     5 
16586 16589 16590     5 
16586 16589 16591     5 
16586 16589 16592     5 
16590 16589 16591     5 
16590 16589 16592     5 
16591 16589 16592     5 
16589 16592 16593     5 
16589 16592 16594     5 
16589 16592 16595     5 
16593 16592 16594     5 
16593 16592 16595     5 
16594 16592 16595     5 
16592 16595 16596     5 
16592 16595 16597     5 
16592 16595 16598     5 
16596 16595 16597     5 
16596 16595 16598     5 
16597 16595 16598     5 
16595 16598 16599     5 
16595 16598 16600     5 
16595 16598 16601     5 
16599 16598 16600     5 
16599 16598 16601     5 
16600 16598 16601     5 
16598 16601 16602     5 
16598 16601 16603     5 
16598 16601 16604     5 
16602 16601 16603     5 
16602 16601 16604     5 
16603 16601 16604     5 
16601 16604 16605     5 
16601 16604 16606     5 
16601 16604 16607     5 
16605 16604 16606     5 
16605 16604 16607     5 
16606 16604 16607     5 
16604 16607 16608     5 
16604 16607 16609     5 
16604 16607 16610     5 
16608 16607 16609     5 
16608 16607 16610     5 
16609 16607 16610     5 
16607 16610 16611     5 
16607 16610 16612     5 
16607 16610 16613     5 
16611 16610 16612     5 
16611 16610 16613     5 
16612 16610 16613     5 
16610 16613 16614     5 
16610 16613 16615     5 
16610 16613 16616     5 
16614 16613 16615     5 
16614 16613 16616     5 
16615 16613 16616     5 
16618 16617 16621     5 
16618 16617 16625     5 
16618 16617 16629     5 
16621 16617 16625     5 
16621 16617 16629     5 
16625 16617 16629     5 
16617 16618 16619     5 
16617 16618 16620     5 
16617 16618 16633     5 
16619 16618 16620     5 
16619 16618 16633     5 
16620 16618 16633     5 
16617 16621 16622     5 
16617 16621 16623     5 
16617 16621 16624     5 
16622 16621 16623     5 
16622 16621 16624     5 
16623 16621 16624     5 
16617 16625 16626     5 
16617 16625 16627     5 
16617 16625 16628     5 
16626 16625 16627     5 
16626 16625 16628     5 
16627 16625 16628     5 
16617 16629 16630     5 
16617 16629 16631     5 
16617 16629 16632     5 
16630 16629 16631     5 
16630 16629 16632     5 
16631 16629 16632     5 
16618 16633 16634     5 
16618 16633 16635     5 
16618 16633 16639     5 
16634 16633 16635     5 
16634 16633 16639     5 
16635 16633 16639     5 
16637 16636 16638     5 
16637 16636 16639     5 
16637 16636 16640     5 
16638 16636 16639     5 
16638 16636 16640     5 
16639 16636 16640     5 
16633 16639 16636     5 
16636 16640 16641     5 
16640 16641 16642     5 
16640 16641 16643     5 
16640 16641 16644     5 
16642 16641 16643     5 
16642 16641 16644     5 
16643 16641 16644     5 
16641 16644 16645     5 
16641 16644 16646     5 
16641 16644 16652     5 
16645 16644 16646     5 
16645 16644 16652     5 
16646 16644 16652     5 
16644 16646 16647     5 
16646 16647 16648     5 
16646 16647 16649     5 
16648 16647 16649     5 
16647 16649 16650     5 
16647 16649 16651     5 
16647 16649 16661     5 
16650 16649 16651     5 
16650 16649 16661     5 
16651 16649 16661     5 
16644 16652 16653     5 
16644 16652 16654     5 
16644 16652 16655     5 
16653 16652 16654     5 
16653 16652 16655     5 
16654 16652 16655     5 
16652 16655 16656     5 
16655 16656 16657     5 
16655 16656 16658     5 
16657 16656 16658     5 
16656 16658 16659     5 
16656 16658 16660     5 
16656 16658 16708     5 
16659 16658 16660     5 
16659 16658 16708     5 
16660 16658 16708     5 
16649 16661 16662     5 
16649 16661 16663     5 
16649 16661 16664     5 
16662 16661 16663     5 
16662 16661 16664     5 
16663 16661 16664     5 
16661 16664 16665     5 
16661 16664 16666     5 
16661 16664 16667     5 
16665 16664 16666     5 
16665 16664 16667     5 
16666 16664 16667     5 
16664 16667 16668     5 
16664 16667 16669     5 
16664 16667 16670     5 
16668 16667 16669     5 
16668 16667 16670     5 
16669 16667 16670     5 
16667 16670 16671     5 
16667 16670 16672     5 
16667 16670 16673     5 
16671 16670 16672     5 
16671 16670 16673     5 
16672 16670 16673     5 
16670 16673 16674     5 
16670 16673 16675     5 
16670 16673 16676     5 
16674 16673 16675     5 
16674 16673 16676     5 
16675 16673 16676     5 
16673 16676 16677     5 
16673 16676 16678     5 
16673 16676 16679     5 
16677 16676 16678     5 
16677 16676 16679     5 
16678 16676 16679     5 
16676 16679 16680     5 
16676 16679 16681     5 
16680 16679 16681     5 
16679 16681 16682     5 
16679 16681 16683     5 
16682 16681 16683     5 
16681 16683 16684     5 
16681 16683 16685     5 
16681 16683 16686     5 
16684 16683 16685     5 
16684 16683 16686     5 
16685 16683 16686     5 
16683 16686 16687     5 
16683 16686 16688     5 
16683 16686 16689     5 
16687 16686 16688     5 
16687 16686 16689     5 
16688 16686 16689     5 
16686 16689 16690     5 
16686 16689 16691     5 
16686 16689 16692     5 
16690 16689 16691     5 
16690 16689 16692     5 
16691 16689 16692     5 
16689 16692 16693     5 
16689 16692 16694     5 
16689 16692 16695     5 
16693 16692 16694     5 
16693 16692 16695     5 
16694 16692 16695     5 
16692 16695 16696     5 
16692 16695 16697     5 
16692 16695 16698     5 
16696 16695 16697     5 
16696 16695 16698     5 
16697 16695 16698     5 
16695 16698 16699     5 
16695 16698 16700     5 
16695 16698 16701     5 
16699 16698 16700     5 
16699 16698 16701     5 
16700 16698 16701     5 
16698 16701 16702     5 
16698 16701 16703     5 
16698 16701 16704     5 
16702 16701 16703     5 
16702 16701 16704     5 
16703 16701 16704     5 
16701 16704 16705     5 
16701 16704 16706     5 
16701 16704 16707     5 
16705 16704 16706     5 
16705 16704 16707     5 
16706 16704 16707     5 
16658 16708 16709     5 
16658 16708 16710     5 
16658 16708 16711     5 
16709 16708 16710     5 
16709 16708 16711     5 
16710 16708 16711     5 
16708 16711 16712     5 
16708 16711 16713     5 
16708 16711 16714     5 
16712 16711 16713     5 
16712 16711 16714     5 
16713 16711 16714     5 
16711 16714 16715     5 
16711 16714 16716     5 
16711 16714 16717     5 
16715 16714 16716     5 
16715 16714 16717     5 
16716 16714 16717     5 
16714 16717 16718     5 
16714 16717 16719     5 
16714 16717 16720     5 
16718 16717 16719     5 
16718 16717 16720     5 
16719 16717 16720     5 
16717 16720 16721     5 
16717 16720 16722     5 
16717 16720 16723     5 
16721 16720 16722     5 
16721 16720 16723     5 
16722 16720 16723     5 
16720 16723 16724     5 
16720 16723 16725     5 
16720 16723 16726     5 
16724 16723 16725     5 
16724 16723 16726     5 
16725 16723 16726     5 
16723 16726 16727     5 
16723 16726 16728     5 
16723 16726 16729     5 
16727 16726 16728     5 
16727 16726 16729     5 
16728 16726 16729     5 
16726 16729 16730     5 
16726 16729 16731     5 
16726 16729 16732     5 
16730 16729 16731     5 
16730 16729 16732     5 
16731 16729 16732     5 
16729 16732 16733     5 
16729 16732 16734     5 
16729 16732 16735     5 
16733 16732 16734     5 
16733 16732 16735     5 
16734 16732 16735     5 
16732 16735 16736     5 
16732 16735 16737     5 
16732 16735 16738     5 
16736 16735 16737     5 
16736 16735 16738     5 
16737 16735 16738     5 
16735 16738 16739     5 
16735 16738 16740     5 
16735 16738 16741     5 
16739 16738 16740     5 
16739 16738 16741     5 
16740 16738 16741     5 
16738 16741 16742     5 
16738 16741 16743     5 
16738 16741 16744     5 
16742 16741 16743     5 
16742 16741 16744     5 
16743 16741 16744     5 
16741 16744 16745     5 
16741 16744 16746     5 
16741 16744 16747     5 
16745 16744 16746     5 
16745 16744 16747     5 
16746 16744 16747     5 
16744 16747 16748     5 
16744 16747 16749     5 
16744 16747 16750     5 
16748 16747 16749     5 
16748 16747 16750     5 
16749 16747 16750     5 
16752 16751 16755     5 
16752 16751 16759     5 
16752 16751 16763     5 
16755 16751 16759     5 
16755 16751 16763     5 
16759 16751 16763     5 
16751 16752 16753     5 
16751 16752 16754     5 
16751 16752 16767     5 
16753 16752 16754     5 
16753 16752 16767     5 
16754 16752 16767     5 
16751 16755 16756     5 
16751 16755 16757     5 
16751 16755 16758     5 
16756 16755 16757     5 
16756 16755 16758     5 
16757 16755 16758     5 
16751 16759 16760     5 
16751 16759 16761     5 
16751 16759 16762     5 
16760 16759 16761     5 
16760 16759 16762     5 
16761 16759 16762     5 
16751 16763 16764     5 
16751 16763 16765     5 
16751 16763 16766     5 
16764 16763 16765     5 
16764 16763 16766     5 
16765 16763 16766     5 
16752 16767 16768     5 
16752 16767 16769     5 
16752 16767 16773     5 
16768 16767 16769     5 
16768 16767 16773     5 
16769 16767 16773     5 
16771 16770 16772     5 
16771 16770 16773     5 
16771 16770 16774     5 
16772 16770 16773     5 
16772 16770 16774     5 
16773 16770 16774     5 
16767 16773 16770     5 
16770 16774 16775     5 
16774 16775 16776     5 
16774 16775 16777     5 
16774 16775 16778     5 
16776 16775 16777     5 
16776 16775 16778     5 
16777 16775 16778     5 
16775 16778 16779     5 
16775 16778 16780     5 
16775 16778 16786     5 
16779 16778 16780     5 
16779 16778 16786     5 
16780 16778 16786     5 
16778 16780 16781     5 
16780 16781 16782     5 
16780 16781 16783     5 
16782 16781 16783     5 
16781 16783 16784     5 
16781 16783 16785     5 
16781 16783 16795     5 
16784 16783 16785     5 
16784 16783 16795     5 
16785 16783 16795     5 
16778 16786 16787     5 
16778 16786 16788     5 
16778 16786 16789     5 
16787 16786 16788     5 
16787 16786 16789     5 
16788 16786 16789     5 
16786 16789 16790     5 
16789 16790 16791     5 
16789 16790 16792     5 
16791 16790 16792     5 
16790 16792 16793     5 
16790 16792 16794     5 
16790 16792 16842     5 
16793 16792 16794     5 
16793 16792 16842     5 
16794 16792 16842     5 
16783 16795 16796     5 
16783 16795 16797     5 
16783 16795 16798     5 
16796 16795 16797     5 
16796 16795 16798     5 
16797 16795 16798     5 
16795 16798 16799     5 
16795 16798 16800     5 
16795 16798 16801     5 
16799 16798 16800     5 
16799 16798 16801     5 
16800 16798 16801     5 
16798 16801 16802     5 
16798 16801 16803     5 
16798 16801 16804     5 
16802 16801 16803     5 
16802 16801 16804     5 
16803 16801 16804     5 
16801 16804 16805     5 
16801 16804 16806     5 
16801 16804 16807     5 
16805 16804 16806     5 
16805 16804 16807     5 
16806 16804 16807     5 
16804 16807 16808     5 
16804 16807 16809     5 
16804 16807 16810     5 
16808 16807 16809     5 
16808 16807 16810     5 
16809 16807 16810     5 
16807 16810 16811     5 
16807 16810 16812     5 
16807 16810 16813     5 
16811 16810 16812     5 
16811 16810 16813     5 
16812 16810 16813     5 
16810 16813 16814     5 
16810 16813 16815     5 
16814 16813 16815     5 
16813 16815 16816     5 
16813 16815 16817     5 
16816 16815 16817     5 
16815 16817 16818     5 
16815 16817 16819     5 
16815 16817 16820     5 
16818 16817 16819     5 
16818 16817 16820     5 
16819 16817 16820     5 
16817 16820 16821     5 
16817 16820 16822     5 
16817 16820 16823     5 
16821 16820 16822     5 
16821 16820 16823     5 
16822 16820 16823     5 
16820 16823 16824     5 
16820 16823 16825     5 
16820 16823 16826     5 
16824 16823 16825     5 
16824 16823 16826     5 
16825 16823 16826     5 
16823 16826 16827     5 
16823 16826 16828     5 
16823 16826 16829     5 
16827 16826 16828     5 
16827 16826 16829     5 
16828 16826 16829     5 
16826 16829 16830     5 
16826 16829 16831     5 
16826 16829 16832     5 
16830 16829 16831     5 
16830 16829 16832     5 
16831 16829 16832     5 
16829 16832 16833     5 
16829 16832 16834     5 
16829 16832 16835     5 
16833 16832 16834     5 
16833 16832 16835     5 
16834 16832 16835     5 
16832 16835 16836     5 
16832 16835 16837     5 
16832 16835 16838     5 
16836 16835 16837     5 
16836 16835 16838     5 
16837 16835 16838     5 
16835 16838 16839     5 
16835 16838 16840     5 
16835 16838 16841     5 
16839 16838 16840     5 
16839 16838 16841     5 
16840 16838 16841     5 
16792 16842 16843     5 
16792 16842 16844     5 
16792 16842 16845     5 
16843 16842 16844     5 
16843 16842 16845     5 
16844 16842 16845     5 
16842 16845 16846     5 
16842 16845 16847     5 
16842 16845 16848     5 
16846 16845 16847     5 
16846 16845 16848     5 
16847 16845 16848     5 
16845 16848 16849     5 
16845 16848 16850     5 
16845 16848 16851     5 
16849 16848 16850     5 
16849 16848 16851     5 
16850 16848 16851     5 
16848 16851 16852     5 
16848 16851 16853     5 
16848 16851 16854     5 
16852 16851 16853     5 
16852 16851 16854     5 
16853 16851 16854     5 
16851 16854 16855     5 
16851 16854 16856     5 
16851 16854 16857     5 
16855 16854 16856     5 
16855 16854 16857     5 
16856 16854 16857     5 
16854 16857 16858     5 
16854 16857 16859     5 
16854 16857 16860     5 
16858 16857 16859     5 
16858 16857 16860     5 
16859 16857 16860     5 
16857 16860 16861     5 
16857 16860 16862     5 
16857 16860 16863     5 
16861 16860 16862     5 
16861 16860 16863     5 
16862 16860 16863     5 
16860 16863 16864     5 
16860 16863 16865     5 
16860 16863 16866     5 
16864 16863 16865     5 
16864 16863 16866     5 
16865 16863 16866     5 
16863 16866 16867     5 
16863 16866 16868     5 
16863 16866 16869     5 
16867 16866 16868     5 
16867 16866 16869     5 
16868 16866 16869     5 
16866 16869 16870     5 
16866 16869 16871     5 
16866 16869 16872     5 
16870 16869 16871     5 
16870 16869 16872     5 
16871 16869 16872     5 
16869 16872 16873     5 
16869 16872 16874     5 
16869 16872 16875     5 
16873 16872 16874     5 
16873 16872 16875     5 
16874 16872 16875     5 
16872 16875 16876     5 
16872 16875 16877     5 
16872 16875 16878     5 
16876 16875 16877     5 
16876 16875 16878     5 
16877 16875 16878     5 
16875 16878 16879     5 
16875 16878 16880     5 
16875 16878 16881     5 
16879 16878 16880     5 
16879 16878 16881     5 
16880 16878 16881     5 
16878 16881 16882     5 
16878 16881 16883     5 
16878 16881 16884     5 
16882 16881 16883     5 
16882 16881 16884     5 
16883 16881 16884     5 
16886 16885 16889     5 
16886 16885 16893     5 
16886 16885 16897     5 
16889 16885 16893     5 
16889 16885 16897     5 
16893 16885 16897     5 
16885 16886 16887     5 
16885 16886 16888     5 
16885 16886 16901     5 
16887 16886 16888     5 
16887 16886 16901     5 
16888 16886 16901     5 
16885 16889 16890     5 
16885 16889 16891     5 
16885 16889 16892     5 
16890 16889 16891     5 
16890 16889 16892     5 
16891 16889 16892     5 
16885 16893 16894     5 
16885 16893 16895     5 
16885 16893 16896     5 
16894 16893 16895     5 
16894 16893 16896     5 
16895 16893 16896     5 
16885 16897 16898     5 
16885 16897 16899     5 
16885 16897 16900     5 
16898 16897 16899     5 
16898 16897 16900     5 
16899 16897 16900     5 
16886 16901 16902     5 
16886 16901 16903     5 
16886 16901 16907     5 
16902 16901 16903     5 
16902 16901 16907     5 
16903 16901 16907     5 
16905 16904 16906     5 
16905 16904 16907     5 
16905 16904 16908     5 
16906 16904 16907     5 
16906 16904 16908     5 
16907 16904 16908     5 
16901 16907 16904     5 
16904 16908 16909     5 
16908 16909 16910     5 
16908 16909 16911     5 
16908 16909 16912     5 
16910 16909 16911     5 
16910 16909 16912     5 
16911 16909 16912     5 
16909 16912 16913     5 
16909 16912 16914     5 
16909 16912 16920     5 
16913 16912 16914     5 
16913 16912 16920     5 
16914 16912 16920     5 
16912 16914 16915     5 
16914 16915 16916     5 
16914 16915 16917     5 
16916 16915 16917     5 
16915 16917 16918     5 
16915 16917 16919     5 
16915 16917 16929     5 
16918 16917 16919     5 
16918 16917 16929     5 
16919 16917 16929     5 
16912 16920 16921     5 
16912 16920 16922     5 
16912 16920 16923     5 
16921 16920 16922     5 
16921 16920 16923     5 
16922 16920 16923     5 
16920 16923 16924     5 
16923 16924 16925     5 
16923 16924 16926     5 
16925 16924 16926     5 
16924 16926 16927     5 
16924 16926 16928     5 
16924 16926 16976     5 
16927 16926 16928     5 
16927 16926 16976     5 
16928 16926 16976     5 
16917 16929 16930     5 
16917 16929 16931     5 
16917 16929 16932     5 
16930 16929 16931     5 
16930 16929 16932     5 
16931 16929 16932     5 
16929 16932 16933     5 
16929 16932 16934     5 
16929 16932 16935     5 
16933 16932 16934     5 
16933 16932 16935     5 
16934 16932 16935     5 
16932 16935 16936     5 
16932 16935 16937     5 
16932 16935 16938     5 
16936 16935 16937     5 
16936 16935 16938     5 
16937 16935 16938     5 
16935 16938 16939     5 
16935 16938 16940     5 
16935 16938 16941     5 
16939 16938 16940     5 
16939 16938 16941     5 
16940 16938 16941     5 
16938 16941 16942     5 
16938 16941 16943     5 
16938 16941 16944     5 
16942 16941 16943     5 
16942 16941 16944     5 
16943 16941 16944     5 
16941 16944 16945     5 
16941 16944 16946     5 
16941 16944 16947     5 
16945 16944 16946     5 
16945 16944 16947     5 
16946 16944 16947     5 
16944 16947 16948     5 
16944 16947 16949     5 
16948 16947 16949     5 
16947 16949 16950     5 
16947 16949 16951     5 
16950 16949 16951     5 
16949 16951 16952     5 
16949 16951 16953     5 
16949 16951 16954     5 
16952 16951 16953     5 
16952 16951 16954     5 
16953 16951 16954     5 
16951 16954 16955     5 
16951 16954 16956     5 
16951 16954 16957     5 
16955 16954 16956     5 
16955 16954 16957     5 
16956 16954 16957     5 
16954 16957 16958     5 
16954 16957 16959     5 
16954 16957 16960     5 
16958 16957 16959     5 
16958 16957 16960     5 
16959 16957 16960     5 
16957 16960 16961     5 
16957 16960 16962     5 
16957 16960 16963     5 
16961 16960 16962     5 
16961 16960 16963     5 
16962 16960 16963     5 
16960 16963 16964     5 
16960 16963 16965     5 
16960 16963 16966     5 
16964 16963 16965     5 
16964 16963 16966     5 
16965 16963 16966     5 
16963 16966 16967     5 
16963 16966 16968     5 
16963 16966 16969     5 
16967 16966 16968     5 
16967 16966 16969     5 
16968 16966 16969     5 
16966 16969 16970     5 
16966 16969 16971     5 
16966 16969 16972     5 
16970 16969 16971     5 
16970 16969 16972     5 
16971 16969 16972     5 
16969 16972 16973     5 
16969 16972 16974     5 
16969 16972 16975     5 
16973 16972 16974     5 
16973 16972 16975     5 
16974 16972 16975     5 
16926 16976 16977     5 
16926 16976 16978     5 
16926 16976 16979     5 
16977 16976 16978     5 
16977 16976 16979     5 
16978 16976 16979     5 
16976 16979 16980     5 
16976 16979 16981     5 
16976 16979 16982     5 
16980 16979 16981     5 
16980 16979 16982     5 
16981 16979 16982     5 
16979 16982 16983     5 
16979 16982 16984     5 
16979 16982 16985     5 
16983 16982 16984     5 
16983 16982 16985     5 
16984 16982 16985     5 
16982 16985 16986     5 
16982 16985 16987     5 
16982 16985 16988     5 
16986 16985 16987     5 
16986 16985 16988     5 
16987 16985 16988     5 
16985 16988 16989     5 
16985 16988 16990     5 
16985 16988 16991     5 
16989 16988 16990     5 
16989 16988 16991     5 
16990 16988 16991     5 
16988 16991 16992     5 
16988 16991 16993     5 
16988 16991 16994     5 
16992 16991 16993     5 
16992 16991 16994     5 
16993 16991 16994     5 
16991 16994 16995     5 
16991 16994 16996     5 
16991 16994 16997     5 
16995 16994 16996     5 
16995 16994 16997     5 
16996 16994 16997     5 
16994 16997 16998     5 
16994 16997 16999     5 
16994 16997 17000     5 
16998 16997 16999     5 
16998 16997 17000     5 
16999 16997 17000     5 
16997 17000 17001     5 
16997 17000 17002     5 
16997 17000 17003     5 
17001 17000 17002     5 
17001 17000 17003     5 
17002 17000 17003     5 
17000 17003 17004     5 
17000 17003 17005     5 
17000 17003 17006     5 
17004 17003 17005     5 
17004 17003 17006     5 
17005 17003 17006     5 
17003 17006 17007     5 
17003 17006 17008     5 
17003 17006 17009     5 
17007 17006 17008     5 
17007 17006 17009     5 
17008 17006 17009     5 
17006 17009 17010     5 
17006 17009 17011     5 
17006 17009 17012     5 
17010 17009 17011     5 
17010 17009 17012     5 
17011 17009 17012     5 
17009 17012 17013     5 
17009 17012 17014     5 
17009 17012 17015     5 
17013 17012 17014     5 
17013 17012 17015     5 
17014 17012 17015     5 
17012 17015 17016     5 
17012 17015 17017     5 
17012 17015 17018     5 
17016 17015 17017     5 
17016 17015 17018     5 
17017 17015 17018     5 
17020 17019 17023     5 
17020 17019 17027     5 
17020 17019 17031     5 
17023 17019 17027     5 
17023 17019 17031     5 
17027 17019 17031     5 
17019 17020 17021     5 
17019 17020 17022     5 
17019 17020 17035     5 
17021 17020 17022     5 
17021 17020 17035     5 
17022 17020 17035     5 
17019 17023 17024     5 
17019 17023 17025     5 
17019 17023 17026     5 
17024 17023 17025     5 
17024 17023 17026     5 
17025 17023 17026     5 
17019 17027 17028     5 
17019 17027 17029     5 
17019 17027 17030     5 
17028 17027 17029     5 
17028 17027 17030     5 
17029 17027 17030     5 
17019 17031 17032     5 
17019 17031 17033     5 
17019 17031 17034     5 
17032 17031 17033     5 
17032 17031 17034     5 
17033 17031 17034     5 
17020 17035 17036     5 
17020 17035 17037     5 
17020 17035 17041     5 
17036 17035 17037     5 
17036 17035 17041     5 
17037 17035 17041     5 
17039 17038 17040     5 
17039 17038 17041     5 
17039 17038 17042     5 
17040 17038 17041     5 
17040 17038 17042     5 
17041 17038 17042     5 
17035 17041 17038     5 
17038 17042 17043     5 
17042 17043 17044     5 
17042 17043 17045     5 
17042 17043 17046     5 
17044 17043 17045     5 
17044 17043 17046     5 
17045 17043 17046     5 
17043 17046 17047     5 
17043 17046 17048     5 
17043 17046 17054     5 
17047 17046 17048     5 
17047 17046 17054     5 
17048 17046 17054     5 
17046 17048 17049     5 
17048 17049 17050     5 
17048 17049 17051     5 
17050 17049 17051     5 
17049 17051 17052     5 
17049 17051 17053     5 
17049 17051 17063     5 
17052 17051 17053     5 
17052 17051 17063     5 
17053 17051 17063     5 
17046 17054 17055     5 
17046 17054 17056     5 
17046 17054 17057     5 
17055 17054 17056     5 
17055 17054 17057     5 
17056 17054 17057     5 
17054 17057 17058     5 
17057 17058 17059     5 
17057 17058 17060     5 
17059 17058 17060     5 
17058 17060 17061     5 
17058 17060 17062     5 
17058 17060 17110     5 
17061 17060 17062     5 
17061 17060 17110     5 
17062 17060 17110     5 
17051 17063 17064     5 
17051 17063 17065     5 
17051 17063 17066     5 
17064 17063 17065     5 
17064 17063 17066     5 
17065 17063 17066     5 
17063 17066 17067     5 
17063 17066 17068     5 
17063 17066 17069     5 
17067 17066 17068     5 
17067 17066 17069     5 
17068 17066 17069     5 
17066 17069 17070     5 
17066 17069 17071     5 
17066 17069 17072     5 
17070 17069 17071     5 
17070 17069 17072     5 
17071 17069 17072     5 
17069 17072 17073     5 
17069 17072 17074     5 
17069 17072 17075     5 
17073 17072 17074     5 
17073 17072 17075     5 
17074 17072 17075     5 
17072 17075 17076     5 
17072 17075 17077     5 
17072 17075 17078     5 
17076 17075 17077     5 
17076 17075 17078     5 
17077 17075 17078     5 
17075 17078 17079     5 
17075 17078 17080     5 
17075 17078 17081     5 
17079 17078 17080     5 
17079 17078 17081     5 
17080 17078 17081     5 
17078 17081 17082     5 
17078 17081 17083     5 
17082 17081 17083     5 
17081 17083 17084     5 
17081 17083 17085     5 
17084 17083 17085     5 
17083 17085 17086     5 
17083 17085 17087     5 
17083 17085 17088     5 
17086 17085 17087     5 
17086 17085 17088     5 
17087 17085 17088     5 
17085 17088 17089     5 
17085 17088 17090     5 
17085 17088 17091     5 
17089 17088 17090     5 
17089 17088 17091     5 
17090 17088 17091     5 
17088 17091 17092     5 
17088 17091 17093     5 
17088 17091 17094     5 
17092 17091 17093     5 
17092 17091 17094     5 
17093 17091 17094     5 
17091 17094 17095     5 
17091 17094 17096     5 
17091 17094 17097     5 
17095 17094 17096     5 
17095 17094 17097     5 
17096 17094 17097     5 
17094 17097 17098     5 
17094 17097 17099     5 
17094 17097 17100     5 
17098 17097 17099     5 
17098 17097 17100     5 
17099 17097 17100     5 
17097 17100 17101     5 
17097 17100 17102     5 
17097 17100 17103     5 
17101 17100 17102     5 
17101 17100 17103     5 
17102 17100 17103     5 
17100 17103 17104     5 
17100 17103 17105     5 
17100 17103 17106     5 
17104 17103 17105     5 
17104 17103 17106     5 
17105 17103 17106     5 
17103 17106 17107     5 
17103 17106 17108     5 
17103 17106 17109     5 
17107 17106 17108     5 
17107 17106 17109     5 
17108 17106 17109     5 
17060 17110 17111     5 
17060 17110 17112     5 
17060 17110 17113     5 
17111 17110 17112     5 
17111 17110 17113     5 
17112 17110 17113     5 
17110 17113 17114     5 
17110 17113 17115     5 
17110 17113 17116     5 
17114 17113 17115     5 
17114 17113 17116     5 
17115 17113 17116     5 
17113 17116 17117     5 
17113 17116 17118     5 
17113 17116 17119     5 
17117 17116 17118     5 
17117 17116 17119     5 
17118 17116 17119     5 
17116 17119 17120     5 
17116 17119 17121     5 
17116 17119 17122     5 
17120 17119 17121     5 
17120 17119 17122     5 
17121 17119 17122     5 
17119 17122 17123     5 
17119 17122 17124     5 
17119 17122 17125     5 
17123 17122 17124     5 
17123 17122 17125     5 
17124 17122 17125     5 
17122 17125 17126     5 
17122 17125 17127     5 
17122 17125 17128     5 
17126 17125 17127     5 
17126 17125 17128     5 
17127 17125 17128     5 
17125 17128 17129     5 
17125 17128 17130     5 
17125 17128 17131     5 
17129 17128 17130     5 
17129 17128 17131     5 
17130 17128 17131     5 
17128 17131 17132     5 
17128 17131 17133     5 
17128 17131 17134     5 
17132 17131 17133     5 
17132 17131 17134     5 
17133 17131 17134     5 
17131 17134 17135     5 
17131 17134 17136     5 
17131 17134 17137     5 
17135 17134 17136     5 
17135 17134 17137     5 
17136 17134 17137     5 
17134 17137 17138     5 
17134 17137 17139     5 
17134 17137 17140     5 
17138 17137 17139     5 
17138 17137 17140     5 
17139 17137 17140     5 
17137 17140 17141     5 
17137 17140 17142     5 
17137 17140 17143     5 
17141 17140 17142     5 
17141 17140 17143     5 
17142 17140 17143     5 
17140 17143 17144     5 
17140 17143 17145     5 
17140 17143 17146     5 
17144 17143 17145     5 
17144 17143 17146     5 
17145 17143 17146     5 
17143 17146 17147     5 
17143 17146 17148     5 
17143 17146 17149     5 
17147 17146 17148     5 
17147 17146 17149     5 
17148 17146 17149     5 
17146 17149 17150     5 
17146 17149 17151     5 
17146 17149 17152     5 
17150 17149 17151     5 
17150 17149 17152     5 
17151 17149 17152     5 
17154 17153 17157     5 
17154 17153 17161     5 
17154 17153 17165     5 
17157 17153 17161     5 
17157 17153 17165     5 
17161 17153 17165     5 
17153 17154 17155     5 
17153 17154 17156     5 
17153 17154 17169     5 
17155 17154 17156     5 
17155 17154 17169     5 
17156 17154 17169     5 
17153 17157 17158     5 
17153 17157 17159     5 
17153 17157 17160     5 
17158 17157 17159     5 
17158 17157 17160     5 
17159 17157 17160     5 
17153 17161 17162     5 
17153 17161 17163     5 
17153 17161 17164     5 
17162 17161 17163     5 
17162 17161 17164     5 
17163 17161 17164     5 
17153 17165 17166     5 
17153 17165 17167     5 
17153 17165 17168     5 
17166 17165 17167     5 
17166 17165 17168     5 
17167 17165 17168     5 
17154 17169 17170     5 
17154 17169 17171     5 
17154 17169 17175     5 
17170 17169 17171     5 
17170 17169 17175     5 
17171 17169 17175     5 
17173 17172 17174     5 
17173 17172 17175     5 
17173 17172 17176     5 
17174 17172 17175     5 
17174 17172 17176     5 
17175 17172 17176     5 
17169 17175 17172     5 
17172 17176 17177     5 
17176 17177 17178     5 
17176 17177 17179     5 
17176 17177 17180     5 
17178 17177 17179     5 
17178 17177 17180     5 
17179 17177 17180     5 
17177 17180 17181     5 
17177 17180 17182     5 
17177 17180 17188     5 
17181 17180 17182     5 
17181 17180 17188     5 
17182 17180 17188     5 
17180 17182 17183     5 
17182 17183 17184     5 
17182 17183 17185     5 
17184 17183 17185     5 
17183 17185 17186     5 
17183 17185 17187     5 
17183 17185 17197     5 
17186 17185 17187     5 
17186 17185 17197     5 
17187 17185 17197     5 
17180 17188 17189     5 
17180 17188 17190     5 
17180 17188 17191     5 
17189 17188 17190     5 
17189 17188 17191     5 
17190 17188 17191     5 
17188 17191 17192     5 
17191 17192 17193     5 
17191 17192 17194     5 
17193 17192 17194     5 
17192 17194 17195     5 
17192 17194 17196     5 
17192 17194 17244     5 
17195 17194 17196     5 
17195 17194 17244     5 
17196 17194 17244     5 
17185 17197 17198     5 
17185 17197 17199     5 
17185 17197 17200     5 
17198 17197 17199     5 
17198 17197 17200     5 
17199 17197 17200     5 
17197 17200 17201     5 
17197 17200 17202     5 
17197 17200 17203     5 
17201 17200 17202     5 
17201 17200 17203     5 
17202 17200 17203     5 
17200 17203 17204     5 
17200 17203 17205     5 
17200 17203 17206     5 
17204 17203 17205     5 
17204 17203 17206     5 
17205 17203 17206     5 
17203 17206 17207     5 
17203 17206 17208     5 
17203 17206 17209     5 
17207 17206 17208     5 
17207 17206 17209     5 
17208 17206 17209     5 
17206 17209 17210     5 
17206 17209 17211     5 
17206 17209 17212     5 
17210 17209 17211     5 
17210 17209 17212     5 
17211 17209 17212     5 
17209 17212 17213     5 
17209 17212 17214     5 
17209 17212 17215     5 
17213 17212 17214     5 
17213 17212 17215     5 
17214 17212 17215     5 
17212 17215 17216     5 
17212 17215 17217     5 
17216 17215 17217     5 
17215 17217 17218     5 
17215 17217 17219     5 
17218 17217 17219     5 
17217 17219 17220     5 
17217 17219 17221     5 
17217 17219 17222     5 
17220 17219 17221     5 
17220 17219 17222     5 
17221 17219 17222     5 
17219 17222 17223     5 
17219 17222 17224     5 
17219 17222 17225     5 
17223 17222 17224     5 
17223 17222 17225     5 
17224 17222 17225     5 
17222 17225 17226     5 
17222 17225 17227     5 
17222 17225 17228     5 
17226 17225 17227     5 
17226 17225 17228     5 
17227 17225 17228     5 
17225 17228 17229     5 
17225 17228 17230     5 
17225 17228 17231     5 
17229 17228 17230     5 
17229 17228 17231     5 
17230 17228 17231     5 
17228 17231 17232     5 
17228 17231 17233     5 
17228 17231 17234     5 
17232 17231 17233     5 
17232 17231 17234     5 
17233 17231 17234     5 
17231 17234 17235     5 
17231 17234 17236     5 
17231 17234 17237     5 
17235 17234 17236     5 
17235 17234 17237     5 
17236 17234 17237     5 
17234 17237 17238     5 
17234 17237 17239     5 
17234 17237 17240     5 
17238 17237 17239     5 
17238 17237 17240     5 
17239 17237 17240     5 
17237 17240 17241     5 
17237 17240 17242     5 
17237 17240 17243     5 
17241 17240 17242     5 
17241 17240 17243     5 
17242 17240 17243     5 
17194 17244 17245     5 
17194 17244 17246     5 
17194 17244 17247     5 
17245 17244 17246     5 
17245 17244 17247     5 
17246 17244 17247     5 
17244 17247 17248     5 
17244 17247 17249     5 
17244 17247 17250     5 
17248 17247 17249     5 
17248 17247 17250     5 
17249 17247 17250     5 
17247 17250 17251     5 
17247 17250 17252     5 
17247 17250 17253     5 
17251 17250 17252     5 
17251 17250 17253     5 
17252 17250 17253     5 
17250 17253 17254     5 
17250 17253 17255     5 
17250 17253 17256     5 
17254 17253 17255     5 
17254 17253 17256     5 
17255 17253 17256     5 
17253 17256 17257     5 
17253 17256 17258     5 
17253 17256 17259     5 
17257 17256 17258     5 
17257 17256 17259     5 
17258 17256 17259     5 
17256 17259 17260     5 
17256 17259 17261     5 
17256 17259 17262     5 
17260 17259 17261     5 
17260 17259 17262     5 
17261 17259 17262     5 
17259 17262 17263     5 
17259 17262 17264     5 
17259 17262 17265     5 
17263 17262 17264     5 
17263 17262 17265     5 
17264 17262 17265     5 
17262 17265 17266     5 
17262 17265 17267     5 
17262 17265 17268     5 
17266 17265 17267     5 
17266 17265 17268     5 
17267 17265 17268     5 
17265 17268 17269     5 
17265 17268 17270     5 
17265 17268 17271     5 
17269 17268 17270     5 
17269 17268 17271     5 
17270 17268 17271     5 
17268 17271 17272     5 
17268 17271 17273     5 
17268 17271 17274     5 
17272 17271 17273     5 
17272 17271 17274     5 
17273 17271 17274     5 
17271 17274 17275     5 
17271 17274 17276     5 
17271 17274 17277     5 
17275 17274 17276     5 
17275 17274 17277     5 
17276 17274 17277     5 
17274 17277 17278     5 
17274 17277 17279     5 
17274 17277 17280     5 
17278 17277 17279     5 
17278 17277 17280     5 
17279 17277 17280     5 
17277 17280 17281     5 
17277 17280 17282     5 
17277 17280 17283     5 
17281 17280 17282     5 
17281 17280 17283     5 
17282 17280 17283     5 
17280 17283 17284     5 
17280 17283 17285     5 
17280 17283 17286     5 
17284 17283 17285     5 
17284 17283 17286     5 
17285 17283 17286     5 
17288 17287 17291     5 
17288 17287 17295     5 
17288 17287 17299     5 
17291 17287 17295     5 
17291 17287 17299     5 
17295 17287 17299     5 
17287 17288 17289     5 
17287 17288 17290     5 
17287 17288 17303     5 
17289 17288 17290     5 
17289 17288 17303     5 
17290 17288 17303     5 
17287 17291 17292     5 
17287 17291 17293     5 
17287 17291 17294     5 
17292 17291 17293     5 
17292 17291 17294     5 
17293 17291 17294     5 
17287 17295 17296     5 
17287 17295 17297     5 
17287 17295 17298     5 
17296 17295 17297     5 
17296 17295 17298     5 
17297 17295 17298     5 
17287 17299 17300     5 
17287 17299 17301     5 
17287 17299 17302     5 
17300 17299 17301     5 
17300 17299 17302     5 
17301 17299 17302     5 
17288 17303 17304     5 
17288 17303 17305     5 
17288 17303 17309     5 
17304 17303 17305     5 
17304 17303 17309     5 
17305 17303 17309     5 
17307 17306 17308     5 
17307 17306 17309     5 
17307 17306 17310     5 
17308 17306 17309     5 
17308 17306 17310     5 
17309 17306 17310     5 
17303 17309 17306     5 
17306 17310 17311     5 
17310 17311 17312     5 
17310 17311 17313     5 
17310 17311 17314     5 
17312 17311 17313     5 
17312 17311 17314     5 
17313 17311 17314     5 
17311 17314 17315     5 
17311 17314 17316     5 
17311 17314 17322     5 
17315 17314 17316     5 
17315 17314 17322     5 
17316 17314 17322     5 
17314 17316 17317     5 
17316 17317 17318     5 
17316 17317 17319     5 
17318 17317 17319     5 
17317 17319 17320     5 
17317 17319 17321     5 
17317 17319 17331     5 
17320 17319 17321     5 
17320 17319 17331     5 
17321 17319 17331     5 
17314 17322 17323     5 
17314 17322 17324     5 
17314 17322 17325     5 
17323 17322 17324     5 
17323 17322 17325     5 
17324 17322 17325     5 
17322 17325 17326     5 
17325 17326 17327     5 
17325 17326 17328     5 
17327 17326 17328     5 
17326 17328 17329     5 
17326 17328 17330     5 
17326 17328 17378     5 
17329 17328 17330     5 
17329 17328 17378     5 
17330 17328 17378     5 
17319 17331 17332     5 
17319 17331 17333     5 
17319 17331 17334     5 
17332 17331 17333     5 
17332 17331 17334     5 
17333 17331 17334     5 
17331 17334 17335     5 
17331 17334 17336     5 
17331 17334 17337     5 
17335 17334 17336     5 
17335 17334 17337     5 
17336 17334 17337     5 
17334 17337 17338     5 
17334 17337 17339     5 
17334 17337 17340     5 
17338 17337 17339     5 
17338 17337 17340     5 
17339 17337 17340     5 
17337 17340 17341     5 
17337 17340 17342     5 
17337 17340 17343     5 
17341 17340 17342     5 
17341 17340 17343     5 
17342 17340 17343     5 
17340 17343 17344     5 
17340 17343 17345     5 
17340 17343 17346     5 
17344 17343 17345     5 
17344 17343 17346     5 
17345 17343 17346     5 
17343 17346 17347     5 
17343 17346 17348     5 
17343 17346 17349     5 
17347 17346 17348     5 
17347 17346 17349     5 
17348 17346 17349     5 
17346 17349 17350     5 
17346 17349 17351     5 
17350 17349 17351     5 
17349 17351 17352     5 
17349 17351 17353     5 
17352 17351 17353     5 
17351 17353 17354     5 
17351 17353 17355     5 
17351 17353 17356     5 
17354 17353 17355     5 
17354 17353 17356     5 
17355 17353 17356     5 
17353 17356 17357     5 
17353 17356 17358     5 
17353 17356 17359     5 
17357 17356 17358     5 
17357 17356 17359     5 
17358 17356 17359     5 
17356 17359 17360     5 
17356 17359 17361     5 
17356 17359 17362     5 
17360 17359 17361     5 
17360 17359 17362     5 
17361 17359 17362     5 
17359 17362 17363     5 
17359 17362 17364     5 
17359 17362 17365     5 
17363 17362 17364     5 
17363 17362 17365     5 
17364 17362 17365     5 
17362 17365 17366     5 
17362 17365 17367     5 
17362 17365 17368     5 
17366 17365 17367     5 
17366 17365 17368     5 
17367 17365 17368     5 
17365 17368 17369     5 
17365 17368 17370     5 
17365 17368 17371     5 
17369 17368 17370     5 
17369 17368 17371     5 
17370 17368 17371     5 
17368 17371 17372     5 
17368 17371 17373     5 
17368 17371 17374     5 
17372 17371 17373     5 
17372 17371 17374     5 
17373 17371 17374     5 
17371 17374 17375     5 
17371 17374 17376     5 
17371 17374 17377     5 
17375 17374 17376     5 
17375 17374 17377     5 
17376 17374 17377     5 
17328 17378 17379     5 
17328 17378 17380     5 
17328 17378 17381     5 
17379 17378 17380     5 
17379 17378 17381     5 
17380 17378 17381     5 
17378 17381 17382     5 
17378 17381 17383     5 
17378 17381 17384     5 
17382 17381 17383     5 
17382 17381 17384     5 
17383 17381 17384     5 
17381 17384 17385     5 
17381 17384 17386     5 
17381 17384 17387     5 
17385 17384 17386     5 
17385 17384 17387     5 
17386 17384 17387     5 
17384 17387 17388     5 
17384 17387 17389     5 
17384 17387 17390     5 
17388 17387 17389     5 
17388 17387 17390     5 
17389 17387 17390     5 
17387 17390 17391     5 
17387 17390 17392     5 
17387 17390 17393     5 
17391 17390 17392     5 
17391 17390 17393     5 
17392 17390 17393     5 
17390 17393 17394     5 
17390 17393 17395     5 
17390 17393 17396     5 
17394 17393 17395     5 
17394 17393 17396     5 
17395 17393 17396     5 
17393 17396 17397     5 
17393 17396 17398     5 
17393 17396 17399     5 
17397 17396 17398     5 
17397 17396 17399     5 
17398 17396 17399     5 
17396 17399 17400     5 
17396 17399 17401     5 
17396 17399 17402     5 
17400 17399 17401     5 
17400 17399 17402     5 
17401 17399 17402     5 
17399 17402 17403     5 
17399 17402 17404     5 
17399 17402 17405     5 
17403 17402 17404     5 
17403 17402 17405     5 
17404 17402 17405     5 
17402 17405 17406     5 
17402 17405 17407     5 
17402 17405 17408     5 
17406 17405 17407     5 
17406 17405 17408     5 
17407 17405 17408     5 
17405 17408 17409     5 
17405 17408 17410     5 
17405 17408 17411     5 
17409 17408 17410     5 
17409 17408 17411     5 
17410 17408 17411     5 
17408 17411 17412     5 
17408 17411 17413     5 
17408 17411 17414     5 
17412 17411 17413     5 
17412 17411 17414     5 
17413 17411 17414     5 
17411 17414 17415     5 
17411 17414 17416     5 
17411 17414 17417     5 
17415 17414 17416     5 
17415 17414 17417     5 
17416 17414 17417     5 
17414 17417 17418     5 
17414 17417 17419     5 
17414 17417 17420     5 
17418 17417 17419     5 
17418 17417 17420     5 
17419 17417 17420     5 
17422 17421 17425     5 
17422 17421 17429     5 
17422 17421 17433     5 
17425 17421 17429     5 
17425 17421 17433     5 
17429 17421 17433     5 
17421 17422 17423     5 
17421 17422 17424     5 
17421 17422 17437     5 
17423 17422 17424     5 
17423 17422 17437     5 
17424 17422 17437     5 
17421 17425 17426     5 
17421 17425 17427     5 
17421 17425 17428     5 
17426 17425 17427     5 
17426 17425 17428     5 
17427 17425 17428     5 
17421 17429 17430     5 
17421 17429 17431     5 
17421 17429 17432     5 
17430 17429 17431     5 
17430 17429 17432     5 
17431 17429 17432     5 
17421 17433 17434     5 
17421 17433 17435     5 
17421 17433 17436     5 
17434 17433 17435     5 
17434 17433 17436     5 
17435 17433 17436     5 
17422 17437 17438     5 
17422 17437 17439     5 
17422 17437 17443     5 
17438 17437 17439     5 
17438 17437 17443     5 
17439 17437 17443     5 
17441 17440 17442     5 
17441 17440 17443     5 
17441 17440 17444     5 
17442 17440 17443     5 
17442 17440 17444     5 
17443 17440 17444     5 
17437 17443 17440     5 
17440 17444 17445     5 
17444 17445 17446     5 
17444 17445 17447     5 
17444 17445 17448     5 
17446 17445 17447     5 
17446 17445 17448     5 
17447 17445 17448     5 
17445 17448 17449     5 
17445 17448 17450     5 
17445 17448 17456     5 
17449 17448 17450     5 
17449 17448 17456     5 
17450 17448 17456     5 
17448 17450 17451     5 
17450 17451 17452     5 
17450 17451 17453     5 
17452 17451 17453     5 
17451 17453 17454     5 
17451 17453 17455     5 
17451 17453 17465     5 
17454 17453 17455     5 
17454 17453 17465     5 
17455 17453 17465     5 
17448 17456 17457     5 
17448 17456 17458     5 
17448 17456 17459     5 
17457 17456 17458     5 
17457 17456 17459     5 
17458 17456 17459     5 
17456 17459 17460     5 
17459 17460 17461     5 
17459 17460 17462     5 
17461 17460 17462     5 
17460 17462 17463     5 
17460 17462 17464     5 
17460 17462 17512     5 
17463 17462 17464     5 
17463 17462 17512     5 
17464 17462 17512     5 
17453 17465 17466     5 
17453 17465 17467     5 
17453 17465 17468     5 
17466 17465 17467     5 
17466 17465 17468     5 
17467 17465 17468     5 
17465 17468 17469     5 
17465 17468 17470     5 
17465 17468 17471     5 
17469 17468 17470     5 
17469 17468 17471     5 
17470 17468 17471     5 
17468 17471 17472     5 
17468 17471 17473     5 
17468 17471 17474     5 
17472 17471 17473     5 
17472 17471 17474     5 
17473 17471 17474     5 
17471 17474 17475     5 
17471 17474 17476     5 
17471 17474 17477     5 
17475 17474 17476     5 
17475 17474 17477     5 
17476 17474 17477     5 
17474 17477 17478     5 
17474 17477 17479     5 
17474 17477 17480     5 
17478 17477 17479     5 
17478 17477 17480     5 
17479 17477 17480     5 
17477 17480 17481     5 
17477 17480 17482     5 
17477 17480 17483     5 
17481 17480 17482     5 
17481 17480 17483     5 
17482 17480 17483     5 
17480 17483 17484     5 
17480 17483 17485     5 
17484 17483 17485     5 
17483 17485 17486     5 
17483 17485 17487     5 
17486 17485 17487     5 
17485 17487 17488     5 
17485 17487 17489     5 
17485 17487 17490     5 
17488 17487 17489     5 
17488 17487 17490     5 
17489 17487 17490     5 
17487 17490 17491     5 
17487 17490 17492     5 
17487 17490 17493     5 
17491 17490 17492     5 
17491 17490 17493     5 
17492 17490 17493     5 
17490 17493 17494     5 
17490 17493 17495     5 
17490 17493 17496     5 
17494 17493 17495     5 
17494 17493 17496     5 
17495 17493 17496     5 
17493 17496 17497     5 
17493 17496 17498     5 
17493 17496 17499     5 
17497 17496 17498     5 
17497 17496 17499     5 
17498 17496 17499     5 
17496 17499 17500     5 
17496 17499 17501     5 
17496 17499 17502     5 
17500 17499 17501     5 
17500 17499 17502     5 
17501 17499 17502     5 
17499 17502 17503     5 
17499 17502 17504     5 
17499 17502 17505     5 
17503 17502 17504     5 
17503 17502 17505     5 
17504 17502 17505     5 
17502 17505 17506     5 
17502 17505 17507     5 
17502 17505 17508     5 
17506 17505 17507     5 
17506 17505 17508     5 
17507 17505 17508     5 
17505 17508 17509     5 
17505 17508 17510     5 
17505 17508 17511     5 
17509 17508 17510     5 
17509 17508 17511     5 
17510 17508 17511     5 
17462 17512 17513     5 
17462 17512 17514     5 
17462 17512 17515     5 
17513 17512 17514     5 
17513 17512 17515     5 
17514 17512 17515     5 
17512 17515 17516     5 
17512 17515 17517     5 
17512 17515 17518     5 
17516 17515 17517     5 
17516 17515 17518     5 
17517 17515 17518     5 
17515 17518 17519     5 
17515 17518 17520     5 
17515 17518 17521     5 
17519 17518 17520     5 
17519 17518 17521     5 
17520 17518 17521     5 
17518 17521 17522     5 
17518 17521 17523     5 
17518 17521 17524     5 
17522 17521 17523     5 
17522 17521 17524     5 
17523 17521 17524     5 
17521 17524 17525     5 
17521 17524 17526     5 
17521 17524 17527     5 
17525 17524 17526     5 
17525 17524 17527     5 
17526 17524 17527     5 
17524 17527 17528     5 
17524 17527 17529     5 
17524 17527 17530     5 
17528 17527 17529     5 
17528 17527 17530     5 
17529 17527 17530     5 
17527 17530 17531     5 
17527 17530 17532     5 
17527 17530 17533     5 
17531 17530 17532     5 
17531 17530 17533     5 
17532 17530 17533     5 
17530 17533 17534     5 
17530 17533 17535     5 
17530 17533 17536     5 
17534 17533 17535     5 
17534 17533 17536     5 
17535 17533 17536     5 
17533 17536 17537     5 
17533 17536 17538     5 
17533 17536 17539     5 
17537 17536 17538     5 
17537 17536 17539     5 
17538 17536 17539     5 
17536 17539 17540     5 
17536 17539 17541     5 
17536 17539 17542     5 
17540 17539 17541     5 
17540 17539 17542     5 
17541 17539 17542     5 
17539 17542 17543     5 
17539 17542 17544     5 
17539 17542 17545     5 
17543 17542 17544     5 
17543 17542 17545     5 
17544 17542 17545     5 
17542 17545 17546     5 
17542 17545 17547     5 
17542 17545 17548     5 
17546 17545 17547     5 
17546 17545 17548     5 
17547 17545 17548     5 
17545 17548 17549     5 
17545 17548 17550     5 
17545 17548 17551     5 
17549 17548 17550     5 
17549 17548 17551     5 
17550 17548 17551     5 
17548 17551 17552     5 
17548 17551 17553     5 
17548 17551 17554     5 
17552 17551 17553     5 
17552 17551 17554     5 
17553 17551 17554     5 
17556 17555 17559     5 
17556 17555 17563     5 
17556 17555 17567     5 
17559 17555 17563     5 
17559 17555 17567     5 
17563 17555 17567     5 
17555 17556 17557     5 
17555 17556 17558     5 
17555 17556 17571     5 
17557 17556 17558     5 
17557 17556 17571     5 
17558 17556 17571     5 
17555 17559 17560     5 
17555 17559 17561     5 
17555 17559 17562     5 
17560 17559 17561     5 
17560 17559 17562     5 
17561 17559 17562     5 
17555 17563 17564     5 
17555 17563 17565     5 
17555 17563 17566     5 
17564 17563 17565     5 
17564 17563 17566     5 
17565 17563 17566     5 
17555 17567 17568     5 
17555 17567 17569     5 
17555 17567 17570     5 
17568 17567 17569     5 
17568 17567 17570     5 
17569 17567 17570     5 
17556 17571 17572     5 
17556 17571 17573     5 
17556 17571 17577     5 
17572 17571 17573     5 
17572 17571 17577     5 
17573 17571 17577     5 
17575 17574 17576     5 
17575 17574 17577     5 
17575 17574 17578     5 
17576 17574 17577     5 
17576 17574 17578     5 
17577 17574 17578     5 
17571 17577 17574     5 
17574 17578 17579     5 
17578 17579 17580     5 
17578 17579 17581     5 
17578 17579 17582     5 
17580 17579 17581     5 
17580 17579 17582     5 
17581 17579 17582     5 
17579 17582 17583     5 
17579 17582 17584     5 
17579 17582 17590     5 
17583 17582 17584     5 
17583 17582 17590     5 
17584 17582 17590     5 
17582 17584 17585     5 
17584 17585 17586     5 
17584 17585 17587     5 
17586 17585 17587     5 
17585 17587 17588     5 
17585 17587 17589     5 
17585 17587 17599     5 
17588 17587 17589     5 
17588 17587 17599     5 
17589 17587 17599     5 
17582 17590 17591     5 
17582 17590 17592     5 
17582 17590 17593     5 
17591 17590 17592     5 
17591 17590 17593     5 
17592 17590 17593     5 
17590 17593 17594     5 
17593 17594 17595     5 
17593 17594 17596     5 
17595 17594 17596     5 
17594 17596 17597     5 
17594 17596 17598     5 
17594 17596 17646     5 
17597 17596 17598     5 
17597 17596 17646     5 
17598 17596 17646     5 
17587 17599 17600     5 
17587 17599 17601     5 
17587 17599 17602     5 
17600 17599 17601     5 
17600 17599 17602     5 
17601 17599 17602     5 
17599 17602 17603     5 
17599 17602 17604     5 
17599 17602 17605     5 
17603 17602 17604     5 
17603 17602 17605     5 
17604 17602 17605     5 
17602 17605 17606     5 
17602 17605 17607     5 
17602 17605 17608     5 
17606 17605 17607     5 
17606 17605 17608     5 
17607 17605 17608     5 
17605 17608 17609     5 
17605 17608 17610     5 
17605 17608 17611     5 
17609 17608 17610     5 
17609 17608 17611     5 
17610 17608 17611     5 
17608 17611 17612     5 
17608 17611 17613     5 
17608 17611 17614     5 
17612 17611 17613     5 
17612 17611 17614     5 
17613 17611 17614     5 
17611 17614 17615     5 
17611 17614 17616     5 
17611 17614 17617     5 
17615 17614 17616     5 
17615 17614 17617     5 
17616 17614 17617     5 
17614 17617 17618     5 
17614 17617 17619     5 
17618 17617 17619     5 
17617 17619 17620     5 
17617 17619 17621     5 
17620 17619 17621     5 
17619 17621 17622     5 
17619 17621 17623     5 
17619 17621 17624     5 
17622 17621 17623     5 
17622 17621 17624     5 
17623 17621 17624     5 
17621 17624 17625     5 
17621 17624 17626     5 
17621 17624 17627     5 
17625 17624 17626     5 
17625 17624 17627     5 
17626 17624 17627     5 
17624 17627 17628     5 
17624 17627 17629     5 
17624 17627 17630     5 
17628 17627 17629     5 
17628 17627 17630     5 
17629 17627 17630     5 
17627 17630 17631     5 
17627 17630 17632     5 
17627 17630 17633     5 
17631 17630 17632     5 
17631 17630 17633     5 
17632 17630 17633     5 
17630 17633 17634     5 
17630 17633 17635     5 
17630 17633 17636     5 
17634 17633 17635     5 
17634 17633 17636     5 
17635 17633 17636     5 
17633 17636 17637     5 
17633 17636 17638     5 
17633 17636 17639     5 
17637 17636 17638     5 
17637 17636 17639     5 
17638 17636 17639     5 
17636 17639 17640     5 
17636 17639 17641     5 
17636 17639 17642     5 
17640 17639 17641     5 
17640 17639 17642     5 
17641 17639 17642     5 
17639 17642 17643     5 
17639 17642 17644     5 
17639 17642 17645     5 
17643 17642 17644     5 
17643 17642 17645     5 
17644 17642 17645     5 
17596 17646 17647     5 
17596 17646 17648     5 
17596 17646 17649     5 
17647 17646 17648     5 
17647 17646 17649     5 
17648 17646 17649     5 
17646 17649 17650     5 
17646 17649 17651     5 
17646 17649 17652     5 
17650 17649 17651     5 
17650 17649 17652     5 
17651 17649 17652     5 
17649 17652 17653     5 
17649 17652 17654     5 
17649 17652 17655     5 
17653 17652 17654     5 
17653 17652 17655     5 
17654 17652 17655     5 
17652 17655 17656     5 
17652 17655 17657     5 
17652 17655 17658     5 
17656 17655 17657     5 
17656 17655 17658     5 
17657 17655 17658     5 
17655 17658 17659     5 
17655 17658 17660     5 
17655 17658 17661     5 
17659 17658 17660     5 
17659 17658 17661     5 
17660 17658 17661     5 
17658 17661 17662     5 
17658 17661 17663     5 
17658 17661 17664     5 
17662 17661 17663     5 
17662 17661 17664     5 
17663 17661 17664     5 
17661 17664 17665     5 
17661 17664 17666     5 
17661 17664 17667     5 
17665 17664 17666     5 
17665 17664 17667     5 
17666 17664 17667     5 
17664 17667 17668     5 
17664 17667 17669     5 
17664 17667 17670     5 
17668 17667 17669     5 
17668 17667 17670     5 
17669 17667 17670     5 
17667 17670 17671     5 
17667 17670 17672     5 
17667 17670 17673     5 
17671 17670 17672     5 
17671 17670 17673     5 
17672 17670 17673     5 
17670 17673 17674     5 
17670 17673 17675     5 
17670 17673 17676     5 
17674 17673 17675     5 
17674 17673 17676     5 
17675 17673 17676     5 
17673 17676 17677     5 
17673 17676 17678     5 
17673 17676 17679     5 
17677 17676 17678     5 
17677 17676 17679     5 
17678 17676 17679     5 
17676 17679 17680     5 
17676 17679 17681     5 
17676 17679 17682     5 
17680 17679 17681     5 
17680 17679 17682     5 
17681 17679 17682     5 
17679 17682 17683     5 
17679 17682 17684     5 
17679 17682 17685     5 
17683 17682 17684     5 
17683 17682 17685     5 
17684 17682 17685     5 
17682 17685 17686     5 
17682 17685 17687     5 
17682 17685 17688     5 
17686 17685 17687     5 
17686 17685 17688     5 
17687 17685 17688     5 
17690 17689 17693     5 
17690 17689 17697     5 
17690 17689 17701     5 
17693 17689 17697     5 
17693 17689 17701     5 
17697 17689 17701     5 
17689 17690 17691     5 
17689 17690 17692     5 
17689 17690 17705     5 
17691 17690 17692     5 
17691 17690 17705     5 
17692 17690 17705     5 
17689 17693 17694     5 
17689 17693 17695     5 
17689 17693 17696     5 
17694 17693 17695     5 
17694 17693 17696     5 
17695 17693 17696     5 
17689 17697 17698     5 
17689 17697 17699     5 
17689 17697 17700     5 
17698 17697 17699     5 
17698 17697 17700     5 
17699 17697 17700     5 
17689 17701 17702     5 
17689 17701 17703     5 
17689 17701 17704     5 
17702 17701 17703     5 
17702 17701 17704     5 
17703 17701 17704     5 
17690 17705 17706     5 
17690 17705 17707     5 
17690 17705 17711     5 
17706 17705 17707     5 
17706 17705 17711     5 
17707 17705 17711     5 
17709 17708 17710     5 
17709 17708 17711     5 
17709 17708 17712     5 
17710 17708 17711     5 
17710 17708 17712     5 
17711 17708 17712     5 
17705 17711 17708     5 
17708 17712 17713     5 
17712 17713 17714     5 
17712 17713 17715     5 
17712 17713 17716     5 
17714 17713 17715     5 
17714 17713 17716     5 
17715 17713 17716     5 
17713 17716 17717     5 
17713 17716 17718     5 
17713 17716 17724     5 
17717 17716 17718     5 
17717 17716 17724     5 
17718 17716 17724     5 
17716 17718 17719     5 
17718 17719 17720     5 
17718 17719 17721     5 
17720 17719 17721     5 
17719 17721 17722     5 
17719 17721 17723     5 
17719 17721 17733     5 
17722 17721 17723     5 
17722 17721 17733     5 
17723 17721 17733     5 
17716 17724 17725     5 
17716 17724 17726     5 
17716 17724 17727     5 
17725 17724 17726     5 
17725 17724 17727     5 
17726 17724 17727     5 
17724 17727 17728     5 
17727 17728 17729     5 
17727 17728 17730     5 
17729 17728 17730     5 
17728 17730 17731     5 
17728 17730 17732     5 
17728 17730 17780     5 
17731 17730 17732     5 
17731 17730 17780     5 
17732 17730 17780     5 
17721 17733 17734     5 
17721 17733 17735     5 
17721 17733 17736     5 
17734 17733 17735     5 
17734 17733 17736     5 
17735 17733 17736     5 
17733 17736 17737     5 
17733 17736 17738     5 
17733 17736 17739     5 
17737 17736 17738     5 
17737 17736 17739     5 
17738 17736 17739     5 
17736 17739 17740     5 
17736 17739 17741     5 
17736 17739 17742     5 
17740 17739 17741     5 
17740 17739 17742     5 
17741 17739 17742     5 
17739 17742 17743     5 
17739 17742 17744     5 
17739 17742 17745     5 
17743 17742 17744     5 
17743 17742 17745     5 
17744 17742 17745     5 
17742 17745 17746     5 
17742 17745 17747     5 
17742 17745 17748     5 
17746 17745 17747     5 
17746 17745 17748     5 
17747 17745 17748     5 
17745 17748 17749     5 
17745 17748 17750     5 
17745 17748 17751     5 
17749 17748 17750     5 
17749 17748 17751     5 
17750 17748 17751     5 
17748 17751 17752     5 
17748 17751 17753     5 
17752 17751 17753     5 
17751 17753 17754     5 
17751 17753 17755     5 
17754 17753 17755     5 
17753 17755 17756     5 
17753 17755 17757     5 
17753 17755 17758     5 
17756 17755 17757     5 
17756 17755 17758     5 
17757 17755 17758     5 
17755 17758 17759     5 
17755 17758 17760     5 
17755 17758 17761     5 
17759 17758 17760     5 
17759 17758 17761     5 
17760 17758 17761     5 
17758 17761 17762     5 
17758 17761 17763     5 
17758 17761 17764     5 
17762 17761 17763     5 
17762 17761 17764     5 
17763 17761 17764     5 
17761 17764 17765     5 
17761 17764 17766     5 
17761 17764 17767     5 
17765 17764 17766     5 
17765 17764 17767     5 
17766 17764 17767     5 
17764 17767 17768     5 
17764 17767 17769     5 
17764 17767 17770     5 
17768 17767 17769     5 
17768 17767 17770     5 
17769 17767 17770     5 
17767 17770 17771     5 
17767 17770 17772     5 
17767 17770 17773     5 
17771 17770 17772     5 
17771 17770 17773     5 
17772 17770 17773     5 
17770 17773 17774     5 
17770 17773 17775     5 
17770 17773 17776     5 
17774 17773 17775     5 
17774 17773 17776     5 
17775 17773 17776     5 
17773 17776 17777     5 
17773 17776 17778     5 
17773 17776 17779     5 
17777 17776 17778     5 
17777 17776 17779     5 
17778 17776 17779     5 
17730 17780 17781     5 
17730 17780 17782     5 
17730 17780 17783     5 
17781 17780 17782     5 
17781 17780 17783     5 
17782 17780 17783     5 
17780 17783 17784     5 
17780 17783 17785     5 
17780 17783 17786     5 
17784 17783 17785     5 
17784 17783 17786     5 
17785 17783 17786     5 
17783 17786 17787     5 
17783 17786 17788     5 
17783 17786 17789     5 
17787 17786 17788     5 
17787 17786 17789     5 
17788 17786 17789     5 
17786 17789 17790     5 
17786 17789 17791     5 
17786 17789 17792     5 
17790 17789 17791     5 
17790 17789 17792     5 
17791 17789 17792     5 
17789 17792 17793     5 
17789 17792 17794     5 
17789 17792 17795     5 
17793 17792 17794     5 
17793 17792 17795     5 
17794 17792 17795     5 
17792 17795 17796     5 
17792 17795 17797     5 
17792 17795 17798     5 
17796 17795 17797     5 
17796 17795 17798     5 
17797 17795 17798     5 
17795 17798 17799     5 
17795 17798 17800     5 
17795 17798 17801     5 
17799 17798 17800     5 
17799 17798 17801     5 
17800 17798 17801     5 
17798 17801 17802     5 
17798 17801 17803     5 
17798 17801 17804     5 
17802 17801 17803     5 
17802 17801 17804     5 
17803 17801 17804     5 
17801 17804 17805     5 
17801 17804 17806     5 
17801 17804 17807     5 
17805 17804 17806     5 
17805 17804 17807     5 
17806 17804 17807     5 
17804 17807 17808     5 
17804 17807 17809     5 
17804 17807 17810     5 
17808 17807 17809     5 
17808 17807 17810     5 
17809 17807 17810     5 
17807 17810 17811     5 
17807 17810 17812     5 
17807 17810 17813     5 
17811 17810 17812     5 
17811 17810 17813     5 
17812 17810 17813     5 
17810 17813 17814     5 
17810 17813 17815     5 
17810 17813 17816     5 
17814 17813 17815     5 
17814 17813 17816     5 
17815 17813 17816     5 
17813 17816 17817     5 
17813 17816 17818     5 
17813 17816 17819     5 
17817 17816 17818     5 
17817 17816 17819     5 
17818 17816 17819     5 
17816 17819 17820     5 
17816 17819 17821     5 
17816 17819 17822     5 
17820 17819 17821     5 
17820 17819 17822     5 
17821 17819 17822     5 
17824 17823 17827     5 
17824 17823 17831     5 
17824 17823 17835     5 
17827 17823 17831     5 
17827 17823 17835     5 
17831 17823 17835     5 
17823 17824 17825     5 
17823 17824 17826     5 
17823 17824 17839     5 
17825 17824 17826     5 
17825 17824 17839     5 
17826 17824 17839     5 
17823 17827 17828     5 
17823 17827 17829     5 
17823 17827 17830     5 
17828 17827 17829     5 
17828 17827 17830     5 
17829 17827 17830     5 
17823 17831 17832     5 
17823 17831 17833     5 
17823 17831 17834     5 
17832 17831 17833     5 
17832 17831 17834     5 
17833 17831 17834     5 
17823 17835 17836     5 
17823 17835 17837     5 
17823 17835 17838     5 
17836 17835 17837     5 
17836 17835 17838     5 
17837 17835 17838     5 
17824 17839 17840     5 
17824 17839 17841     5 
17824 17839 17845     5 
17840 17839 17841     5 
17840 17839 17845     5 
17841 17839 17845     5 
17843 17842 17844     5 
17843 17842 17845     5 
17843 17842 17846     5 
17844 17842 17845     5 
17844 17842 17846     5 
17845 17842 17846     5 
17839 17845 17842     5 
17842 17846 17847     5 
17846 17847 17848     5 
17846 17847 17849     5 
17846 17847 17850     5 
17848 17847 17849     5 
17848 17847 17850     5 
17849 17847 17850     5 
17847 17850 17851     5 
17847 17850 17852     5 
17847 17850 17858     5 
17851 17850 17852     5 
17851 17850 17858     5 
17852 17850 17858     5 
17850 17852 17853     5 
17852 17853 17854     5 
17852 17853 17855     5 
17854 17853 17855     5 
17853 17855 17856     5 
17853 17855 17857     5 
17853 17855 17867     5 
17856 17855 17857     5 
17856 17855 17867     5 
17857 17855 17867     5 
17850 17858 17859     5 
17850 17858 17860     5 
17850 17858 17861     5 
17859 17858 17860     5 
17859 17858 17861     5 
17860 17858 17861     5 
17858 17861 17862     5 
17861 17862 17863     5 
17861 17862 17864     5 
17863 17862 17864     5 
17862 17864 17865     5 
17862 17864 17866     5 
17862 17864 17914     5 
17865 17864 17866     5 
17865 17864 17914     5 
17866 17864 17914     5 
17855 17867 17868     5 
17855 17867 17869     5 
17855 17867 17870     5 
17868 17867 17869     5 
17868 17867 17870     5 
17869 17867 17870     5 
17867 17870 17871     5 
17867 17870 17872     5 
17867 17870 17873     5 
17871 17870 17872     5 
17871 17870 17873     5 
17872 17870 17873     5 
17870 17873 17874     5 
17870 17873 17875     5 
17870 17873 17876     5 
17874 17873 17875     5 
17874 17873 17876     5 
17875 17873 17876     5 
17873 17876 17877     5 
17873 17876 17878     5 
17873 17876 17879     5 
17877 17876 17878     5 
17877 17876 17879     5 
17878 17876 17879     5 
17876 17879 17880     5 
17876 17879 17881     5 
17876 17879 17882     5 
17880 17879 17881     5 
17880 17879 17882     5 
17881 17879 17882     5 
17879 17882 17883     5 
17879 17882 17884     5 
17879 17882 17885     5 
17883 17882 17884     5 
17883 17882 17885     5 
17884 17882 17885     5 
17882 17885 17886     5 
17882 17885 17887     5 
17886 17885 17887     5 
17885 17887 17888     5 
17885 17887 17889     5 
17888 17887 17889     5 
17887 17889 17890     5 
17887 17889 17891     5 
17887 17889 17892     5 
17890 17889 17891     5 
17890 17889 17892     5 
17891 17889 17892     5 
17889 17892 17893     5 
17889 17892 17894     5 
17889 17892 17895     5 
17893 17892 17894     5 
17893 17892 17895     5 
17894 17892 17895     5 
17892 17895 17896     5 
17892 17895 17897     5 
17892 17895 17898     5 
17896 17895 17897     5 
17896 17895 17898     5 
17897 17895 17898     5 
17895 17898 17899     5 
17895 17898 17900     5 
17895 17898 17901     5 
17899 17898 17900     5 
17899 17898 17901     5 
17900 17898 17901     5 
17898 17901 17902     5 
17898 17901 17903     5 
17898 17901 17904     5 
17902 17901 17903     5 
17902 17901 17904     5 
17903 17901 17904     5 
17901 17904 17905     5 
17901 17904 17906     5 
17901 17904 17907     5 
17905 17904 17906     5 
17905 17904 17907     5 
17906 17904 17907     5 
17904 17907 17908     5 
17904 17907 17909     5 
17904 17907 17910     5 
17908 17907 17909     5 
17908 17907 17910     5 
17909 17907 17910     5 
17907 17910 17911     5 
17907 17910 17912     5 
17907 17910 17913     5 
17911 17910 17912     5 
17911 17910 17913     5 
17912 17910 17913     5 
17864 17914 17915     5 
17864 17914 17916     5 
17864 17914 17917     5 
17915 17914 17916     5 
17915 17914 17917     5 
17916 17914 17917     5 
17914 17917 17918     5 
17914 17917 17919     5 
17914 17917 17920     5 
17918 17917 17919     5 
17918 17917 17920     5 
17919 17917 17920     5 
17917 17920 17921     5 
17917 17920 17922     5 
17917 17920 17923     5 
17921 17920 17922     5 
17921 17920 17923     5 
17922 17920 17923     5 
17920 17923 17924     5 
17920 17923 17925     5 
17920 17923 17926     5 
17924 17923 17925     5 
17924 17923 17926     5 
17925 17923 17926     5 
17923 17926 17927     5 
17923 17926 17928     5 
17923 17926 17929     5 
17927 17926 17928     5 
17927 17926 17929     5 
17928 17926 17929     5 
17926 17929 17930     5 
17926 17929 17931     5 
17926 17929 17932     5 
17930 17929 17931     5 
17930 17929 17932     5 
17931 17929 17932     5 
17929 17932 17933     5 
17929 17932 17934     5 
17929 17932 17935     5 
17933 17932 17934     5 
17933 17932 17935     5 
17934 17932 17935     5 
17932 17935 17936     5 
17932 17935 17937     5 
17932 17935 17938     5 
17936 17935 17937     5 
17936 17935 17938     5 
17937 17935 17938     5 
17935 17938 17939     5 
17935 17938 17940     5 
17935 17938 17941     5 
17939 17938 17940     5 
17939 17938 17941     5 
17940 17938 17941     5 
17938 17941 17942     5 
17938 17941 17943     5 
17938 17941 17944     5 
17942 17941 17943     5 
17942 17941 17944     5 
17943 17941 17944     5 
17941 17944 17945     5 
17941 17944 17946     5 
17941 17944 17947     5 
17945 17944 17946     5 
17945 17944 17947     5 
17946 17944 17947     5 
17944 17947 17948     5 
17944 17947 17949     5 
17944 17947 17950     5 
17948 17947 17949     5 
17948 17947 17950     5 
17949 17947 17950     5 
17947 17950 17951     5 
17947 17950 17952     5 
17947 17950 17953     5 
17951 17950 17952     5 
17951 17950 17953     5 
17952 17950 17953     5 
17950 17953 17954     5 
17950 17953 17955     5 
17950 17953 17956     5 
17954 17953 17955     5 
17954 17953 17956     5 
17955 17953 17956     5 
17958 17957 17961     5 
17958 17957 17965     5 
17958 17957 17969     5 
17961 17957 17965     5 
17961 17957 17969     5 
17965 17957 17969     5 
17957 17958 17959     5 
17957 17958 17960     5 
17957 17958 17973     5 
17959 17958 17960     5 
17959 17958 17973     5 
17960 17958 17973     5 
17957 17961 17962     5 
17957 17961 17963     5 
17957 17961 17964     5 
17962 17961 17963     5 
17962 17961 17964     5 
17963 17961 17964     5 
17957 17965 17966     5 
17957 17965 17967     5 
17957 17965 17968     5 
17966 17965 17967     5 
17966 17965 17968     5 
17967 17965 17968     5 
17957 17969 17970     5 
17957 17969 17971     5 
17957 17969 17972     5 
17970 17969 17971     5 
17970 17969 17972     5 
17971 17969 17972     5 
17958 17973 17974     5 
17958 17973 17975     5 
17958 17973 17979     5 
17974 17973 17975     5 
17974 17973 17979     5 
17975 17973 17979     5 
17977 17976 17978     5 
17977 17976 17979     5 
17977 17976 17980     5 
17978 17976 17979     5 
17978 17976 17980     5 
17979 17976 17980     5 
17973 17979 17976     5 
17976 17980 17981     5 
17980 17981 17982     5 
17980 17981 17983     5 
17980 17981 17984     5 
17982 17981 17983     5 
17982 17981 17984     5 
17983 17981 17984     5 
17981 17984 17985     5 
17981 17984 17986     5 
17981 17984 17992     5 
17985 17984 17986     5 
17985 17984 17992     5 
17986 17984 17992     5 
17984 17986 17987     5 
17986 17987 17988     5 
17986 17987 17989     5 
17988 17987 17989     5 
17987 17989 17990     5 
17987 17989 17991     5 
17987 17989 18001     5 
17990 17989 17991     5 
17990 17989 18001     5 
17991 17989 18001     5 
17984 17992 17993     5 
17984 17992 17994     5 
17984 17992 17995     5 
17993 17992 17994     5 
17993 17992 17995     5 
17994 17992 17995     5 
17992 17995 17996     5 
17995 17996 17997     5 
17995 17996 17998     5 
17997 17996 17998     5 
17996 17998 17999     5 
17996 17998 18000     5 
17996 17998 18048     5 
17999 17998 18000     5 
17999 17998 18048     5 
18000 17998 18048     5 
17989 18001 18002     5 
17989 18001 18003     5 
17989 18001 18004     5 
18002 18001 18003     5 
18002 18001 18004     5 
18003 18001 18004     5 
18001 18004 18005     5 
18001 18004 18006     5 
18001 18004 18007     5 
18005 18004 18006     5 
18005 18004 18007     5 
18006 18004 18007     5 
18004 18007 18008     5 
18004 18007 18009     5 
18004 18007 18010     5 
18008 18007 18009     5 
18008 18007 18010     5 
18009 18007 18010     5 
18007 18010 18011     5 
18007 18010 18012     5 
18007 18010 18013     5 
18011 18010 18012     5 
18011 18010 18013     5 
18012 18010 18013     5 
18010 18013 18014     5 
18010 18013 18015     5 
18010 18013 18016     5 
18014 18013 18015     5 
18014 18013 18016     5 
18015 18013 18016     5 
18013 18016 18017     5 
18013 18016 18018     5 
18013 18016 18019     5 
18017 18016 18018     5 
18017 18016 18019     5 
18018 18016 18019     5 
18016 18019 18020     5 
18016 18019 18021     5 
18020 18019 18021     5 
18019 18021 18022     5 
18019 18021 18023     5 
18022 18021 18023     5 
18021 18023 18024     5 
18021 18023 18025     5 
18021 18023 18026     5 
18024 18023 18025     5 
18024 18023 18026     5 
18025 18023 18026     5 
18023 18026 18027     5 
18023 18026 18028     5 
18023 18026 18029     5 
18027 18026 18028     5 
18027 18026 18029     5 
18028 18026 18029     5 
18026 18029 18030     5 
18026 18029 18031     5 
18026 18029 18032     5 
18030 18029 18031     5 
18030 18029 18032     5 
18031 18029 18032     5 
18029 18032 18033     5 
18029 18032 18034     5 
18029 18032 18035     5 
18033 18032 18034     5 
18033 18032 18035     5 
18034 18032 18035     5 
18032 18035 18036     5 
18032 18035 18037     5 
18032 18035 18038     5 
18036 18035 18037     5 
18036 18035 18038     5 
18037 18035 18038     5 
18035 18038 18039     5 
18035 18038 18040     5 
18035 18038 18041     5 
18039 18038 18040     5 
18039 18038 18041     5 
18040 18038 18041     5 
18038 18041 18042     5 
18038 18041 18043     5 
18038 18041 18044     5 
18042 18041 18043     5 
18042 18041 18044     5 
18043 18041 18044     5 
18041 18044 18045     5 
18041 18044 18046     5 
18041 18044 18047     5 
18045 18044 18046     5 
18045 18044 18047     5 
18046 18044 18047     5 
17998 18048 18049     5 
17998 18048 18050     5 
17998 18048 18051     5 
18049 18048 18050     5 
18049 18048 18051     5 
18050 18048 18051     5 
18048 18051 18052     5 
18048 18051 18053     5 
18048 18051 18054     5 
18052 18051 18053     5 
18052 18051 18054     5 
18053 18051 18054     5 
18051 18054 18055     5 
18051 18054 18056     5 
18051 18054 18057     5 
18055 18054 18056     5 
18055 18054 18057     5 
18056 18054 18057     5 
18054 18057 18058     5 
18054 18057 18059     5 
18054 18057 18060     5 
18058 18057 18059     5 
18058 18057 18060     5 
18059 18057 18060     5 
18057 18060 18061     5 
18057 18060 18062     5 
18057 18060 18063     5 
18061 18060 18062     5 
18061 18060 18063     5 
18062 18060 18063     5 
18060 18063 18064     5 
18060 18063 18065     5 
18060 18063 18066     5 
18064 18063 18065     5 
18064 18063 18066     5 
18065 18063 18066     5 
18063 18066 18067     5 
18063 18066 18068     5 
18063 18066 18069     5 
18067 18066 18068     5 
18067 18066 18069     5 
18068 18066 18069     5 
18066 18069 18070     5 
18066 18069 18071     5 
18066 18069 18072     5 
18070 18069 18071     5 
18070 18069 18072     5 
18071 18069 18072     5 
18069 18072 18073     5 
18069 18072 18074     5 
18069 18072 18075     5 
18073 18072 18074     5 
18073 18072 18075     5 
18074 18072 18075     5 
18072 18075 18076     5 
18072 18075 18077     5 
18072 18075 18078     5 
18076 18075 18077     5 
18076 18075 18078     5 
18077 18075 18078     5 
18075 18078 18079     5 
18075 18078 18080     5 
18075 18078 18081     5 
18079 18078 18080     5 
18079 18078 18081     5 
18080 18078 18081     5 
18078 18081 18082     5 
18078 18081 18083     5 
18078 18081 18084     5 
18082 18081 18083     5 
18082 18081 18084     5 
18083 18081 18084     5 
18081 18084 18085     5 
18081 18084 18086     5 
18081 18084 18087     5 
18085 18084 18086     5 
18085 18084 18087     5 
18086 18084 18087     5 
18084 18087 18088     5 
18084 18087 18089     5 
18084 18087 18090     5 
18088 18087 18089     5 
18088 18087 18090     5 
18089 18087 18090     5 
18092 18091 18095     5 
18092 18091 18099     5 
18092 18091 18103     5 
18095 18091 18099     5 
18095 18091 18103     5 
18099 18091 18103     5 
18091 18092 18093     5 
18091 18092 18094     5 
18091 18092 18107     5 
18093 18092 18094     5 
18093 18092 18107     5 
18094 18092 18107     5 
18091 18095 18096     5 
18091 18095 18097     5 
18091 18095 18098     5 
18096 18095 18097     5 
18096 18095 18098     5 
18097 18095 18098     5 
18091 18099 18100     5 
18091 18099 18101     5 
18091 18099 18102     5 
18100 18099 18101     5 
18100 18099 18102     5 
18101 18099 18102     5 
18091 18103 18104     5 
18091 18103 18105     5 
18091 18103 18106     5 
18104 18103 18105     5 
18104 18103 18106     5 
18105 18103 18106     5 
18092 18107 18108     5 
18092 18107 18109     5 
18092 18107 18113     5 
18108 18107 18109     5 
18108 18107 18113     5 
18109 18107 18113     5 
18111 18110 18112     5 
18111 18110 18113     5 
18111 18110 18114     5 
18112 18110 18113     5 
18112 18110 18114     5 
18113 18110 18114     5 
18107 18113 18110     5 
18110 18114 18115     5 
18114 18115 18116     5 
18114 18115 18117     5 
18114 18115 18118     5 
18116 18115 18117     5 
18116 18115 18118     5 
18117 18115 18118     5 
18115 18118 18119     5 
18115 18118 18120     5 
18115 18118 18126     5 
18119 18118 18120     5 
18119 18118 18126     5 
18120 18118 18126     5 
18118 18120 18121     5 
18120 18121 18122     5 
18120 18121 18123     5 
18122 18121 18123     5 
18121 18123 18124     5 
18121 18123 18125     5 
18121 18123 18135     5 
18124 18123 18125     5 
18124 18123 18135     5 
18125 18123 18135     5 
18118 18126 18127     5 
18118 18126 18128     5 
18118 18126 18129     5 
18127 18126 18128     5 
18127 18126 18129     5 
18128 18126 18129     5 
18126 18129 18130     5 
18129 18130 18131     5 
18129 18130 18132     5 
18131 18130 18132     5 
18130 18132 18133     5 
18130 18132 18134     5 
18130 18132 18182     5 
18133 18132 18134     5 
18133 18132 18182     5 
18134 18132 18182     5 
18123 18135 18136     5 
18123 18135 18137     5 
18123 18135 18138     5 
18136 18135 18137     5 
18136 18135 18138     5 
18137 18135 18138     5 
18135 18138 18139     5 
18135 18138 18140     5 
18135 18138 18141     5 
18139 18138 18140     5 
18139 18138 18141     5 
18140 18138 18141     5 
18138 18141 18142     5 
18138 18141 18143     5 
18138 18141 18144     5 
18142 18141 18143     5 
18142 18141 18144     5 
18143 18141 18144     5 
18141 18144 18145     5 
18141 18144 18146     5 
18141 18144 18147     5 
18145 18144 18146     5 
18145 18144 18147     5 
18146 18144 18147     5 
18144 18147 18148     5 
18144 18147 18149     5 
18144 18147 18150     5 
18148 18147 18149     5 
18148 18147 18150     5 
18149 18147 18150     5 
18147 18150 18151     5 
18147 18150 18152     5 
18147 18150 18153     5 
18151 18150 18152     5 
18151 18150 18153     5 
18152 18150 18153     5 
18150 18153 18154     5 
18150 18153 18155     5 
18154 18153 18155     5 
18153 18155 18156     5 
18153 18155 18157     5 
18156 18155 18157     5 
18155 18157 18158     5 
18155 18157 18159     5 
18155 18157 18160     5 
18158 18157 18159     5 
18158 18157 18160     5 
18159 18157 18160     5 
18157 18160 18161     5 
18157 18160 18162     5 
18157 18160 18163     5 
18161 18160 18162     5 
18161 18160 18163     5 
18162 18160 18163     5 
18160 18163 18164     5 
18160 18163 18165     5 
18160 18163 18166     5 
18164 18163 18165     5 
18164 18163 18166     5 
18165 18163 18166     5 
18163 18166 18167     5 
18163 18166 18168     5 
18163 18166 18169     5 
18167 18166 18168     5 
18167 18166 18169     5 
18168 18166 18169     5 
18166 18169 18170     5 
18166 18169 18171     5 
18166 18169 18172     5 
18170 18169 18171     5 
18170 18169 18172     5 
18171 18169 18172     5 
18169 18172 18173     5 
18169 18172 18174     5 
18169 18172 18175     5 
18173 18172 18174     5 
18173 18172 18175     5 
18174 18172 18175     5 
18172 18175 18176     5 
18172 18175 18177     5 
18172 18175 18178     5 
18176 18175 18177     5 
18176 18175 18178     5 
18177 18175 18178     5 
18175 18178 18179     5 
18175 18178 18180     5 
18175 18178 18181     5 
18179 18178 18180     5 
18179 18178 18181     5 
18180 18178 18181     5 
18132 18182 18183     5 
18132 18182 18184     5 
18132 18182 18185     5 
18183 18182 18184     5 
18183 18182 18185     5 
18184 18182 18185     5 
18182 18185 18186     5 
18182 18185 18187     5 
18182 18185 18188     5 
18186 18185 18187     5 
18186 18185 18188     5 
18187 18185 18188     5 
18185 18188 18189     5 
18185 18188 18190     5 
18185 18188 18191     5 
18189 18188 18190     5 
18189 18188 18191     5 
18190 18188 18191     5 
18188 18191 18192     5 
18188 18191 18193     5 
18188 18191 18194     5 
18192 18191 18193     5 
18192 18191 18194     5 
18193 18191 18194     5 
18191 18194 18195     5 
18191 18194 18196     5 
18191 18194 18197     5 
18195 18194 18196     5 
18195 18194 18197     5 
18196 18194 18197     5 
18194 18197 18198     5 
18194 18197 18199     5 
18194 18197 18200     5 
18198 18197 18199     5 
18198 18197 18200     5 
18199 18197 18200     5 
18197 18200 18201     5 
18197 18200 18202     5 
18197 18200 18203     5 
18201 18200 18202     5 
18201 18200 18203     5 
18202 18200 18203     5 
18200 18203 18204     5 
18200 18203 18205     5 
18200 18203 18206     5 
18204 18203 18205     5 
18204 18203 18206     5 
18205 18203 18206     5 
18203 18206 18207     5 
18203 18206 18208     5 
18203 18206 18209     5 
18207 18206 18208     5 
18207 18206 18209     5 
18208 18206 18209     5 
18206 18209 18210     5 
18206 18209 18211     5 
18206 18209 18212     5 
18210 18209 18211     5 
18210 18209 18212     5 
18211 18209 18212     5 
18209 18212 18213     5 
18209 18212 18214     5 
18209 18212 18215     5 
18213 18212 18214     5 
18213 18212 18215     5 
18214 18212 18215     5 
18212 18215 18216     5 
18212 18215 18217     5 
18212 18215 18218     5 
18216 18215 18217     5 
18216 18215 18218     5 
18217 18215 18218     5 
18215 18218 18219     5 
18215 18218 18220     5 
18215 18218 18221     5 
18219 18218 18220     5 
18219 18218 18221     5 
18220 18218 18221     5 
18218 18221 18222     5 
18218 18221 18223     5 
18218 18221 18224     5 
18222 18221 18223     5 
18222 18221 18224     5 
18223 18221 18224     5 
18226 18225 18229     5 
18226 18225 18233     5 
18226 18225 18237     5 
18229 18225 18233     5 
18229 18225 18237     5 
18233 18225 18237     5 
18225 18226 18227     5 
18225 18226 18228     5 
18225 18226 18241     5 
18227 18226 18228     5 
18227 18226 18241     5 
18228 18226 18241     5 
18225 18229 18230     5 
18225 18229 18231     5 
18225 18229 18232     5 
18230 18229 18231     5 
18230 18229 18232     5 
18231 18229 18232     5 
18225 18233 18234     5 
18225 18233 18235     5 
18225 18233 18236     5 
18234 18233 18235     5 
18234 18233 18236     5 
18235 18233 18236     5 
18225 18237 18238     5 
18225 18237 18239     5 
18225 18237 18240     5 
18238 18237 18239     5 
18238 18237 18240     5 
18239 18237 18240     5 
18226 18241 18242     5 
18226 18241 18243     5 
18226 18241 18247     5 
18242 18241 18243     5 
18242 18241 18247     5 
18243 18241 18247     5 
18245 18244 18246     5 
18245 18244 18247     5 
18245 18244 18248     5 
18246 18244 18247     5 
18246 18244 18248     5 
18247 18244 18248     5 
18241 18247 18244     5 
18244 18248 18249     5 
18248 18249 18250     5 
18248 18249 18251     5 
18248 18249 18252     5 
18250 18249 18251     5 
18250 18249 18252     5 
18251 18249 18252     5 
18249 18252 18253     5 
18249 18252 18254     5 
18249 18252 18260     5 
18253 18252 18254     5 
18253 18252 18260     5 
18254 18252 18260     5 
18252 18254 18255     5 
18254 18255 18256     5 
18254 18255 18257     5 
18256 18255 18257     5 
18255 18257 18258     5 
18255 18257 18259     5 
18255 18257 18269     5 
18258 18257 18259     5 
18258 18257 18269     5 
18259 18257 18269     5 
18252 18260 18261     5 
18252 18260 18262     5 
18252 18260 18263     5 
18261 18260 18262     5 
18261 18260 18263     5 
18262 18260 18263     5 
18260 18263 18264     5 
18263 18264 18265     5 
18263 18264 18266     5 
18265 18264 18266     5 
18264 18266 18267     5 
18264 18266 18268     5 
18264 18266 18316     5 
18267 18266 18268     5 
18267 18266 18316     5 
18268 18266 18316     5 
18257 18269 18270     5 
18257 18269 18271     5 
18257 18269 18272     5 
18270 18269 18271     5 
18270 18269 18272     5 
18271 18269 18272     5 
18269 18272 18273     5 
18269 18272 18274     5 
18269 18272 18275     5 
18273 18272 18274     5 
18273 18272 18275     5 
18274 18272 18275     5 
18272 18275 18276     5 
18272 18275 18277     5 
18272 18275 18278     5 
18276 18275 18277     5 
18276 18275 18278     5 
18277 18275 18278     5 
18275 18278 18279     5 
18275 18278 18280     5 
18275 18278 18281     5 
18279 18278 18280     5 
18279 18278 18281     5 
18280 18278 18281     5 
18278 18281 18282     5 
18278 18281 18283     5 
18278 18281 18284     5 
18282 18281 18283     5 
18282 18281 18284     5 
18283 18281 18284     5 
18281 18284 18285     5 
18281 18284 18286     5 
18281 18284 18287     5 
18285 18284 18286     5 
18285 18284 18287     5 
18286 18284 18287     5 
18284 18287 18288     5 
18284 18287 18289     5 
18288 18287 18289     5 
18287 18289 18290     5 
18287 18289 18291     5 
18290 18289 18291     5 
18289 18291 18292     5 
18289 18291 18293     5 
18289 18291 18294     5 
18292 18291 18293     5 
18292 18291 18294     5 
18293 18291 18294     5 
18291 18294 18295     5 
18291 18294 18296     5 
18291 18294 18297     5 
18295 18294 18296     5 
18295 18294 18297     5 
18296 18294 18297     5 
18294 18297 18298     5 
18294 18297 18299     5 
18294 18297 18300     5 
18298 18297 18299     5 
18298 18297 18300     5 
18299 18297 18300     5 
18297 18300 18301     5 
18297 18300 18302     5 
18297 18300 18303     5 
18301 18300 18302     5 
18301 18300 18303     5 
18302 18300 18303     5 
18300 18303 18304     5 
18300 18303 18305     5 
18300 18303 18306     5 
18304 18303 18305     5 
18304 18303 18306     5 
18305 18303 18306     5 
18303 18306 18307     5 
18303 18306 18308     5 
18303 18306 18309     5 
18307 18306 18308     5 
18307 18306 18309     5 
18308 18306 18309     5 
18306 18309 18310     5 
18306 18309 18311     5 
18306 18309 18312     5 
18310 18309 18311     5 
18310 18309 18312     5 
18311 18309 18312     5 
18309 18312 18313     5 
18309 18312 18314     5 
18309 18312 18315     5 
18313 18312 18314     5 
18313 18312 18315     5 
18314 18312 18315     5 
18266 18316 18317     5 
18266 18316 18318     5 
18266 18316 18319     5 
18317 18316 18318     5 
18317 18316 18319     5 
18318 18316 18319     5 
18316 18319 18320     5 
18316 18319 18321     5 
18316 18319 18322     5 
18320 18319 18321     5 
18320 18319 18322     5 
18321 18319 18322     5 
18319 18322 18323     5 
18319 18322 18324     5 
18319 18322 18325     5 
18323 18322 18324     5 
18323 18322 18325     5 
18324 18322 18325     5 
18322 18325 18326     5 
18322 18325 18327     5 
18322 18325 18328     5 
18326 18325 18327     5 
18326 18325 18328     5 
18327 18325 18328     5 
18325 18328 18329     5 
18325 18328 18330     5 
18325 18328 18331     5 
18329 18328 18330     5 
18329 18328 18331     5 
18330 18328 18331     5 
18328 18331 18332     5 
18328 18331 18333     5 
18328 18331 18334     5 
18332 18331 18333     5 
18332 18331 18334     5 
18333 18331 18334     5 
18331 18334 18335     5 
18331 18334 18336     5 
18331 18334 18337     5 
18335 18334 18336     5 
18335 18334 18337     5 
18336 18334 18337     5 
18334 18337 18338     5 
18334 18337 18339     5 
18334 18337 18340     5 
18338 18337 18339     5 
18338 18337 18340     5 
18339 18337 18340     5 
18337 18340 18341     5 
18337 18340 18342     5 
18337 18340 18343     5 
18341 18340 18342     5 
18341 18340 18343     5 
18342 18340 18343     5 
18340 18343 18344     5 
18340 18343 18345     5 
18340 18343 18346     5 
18344 18343 18345     5 
18344 18343 18346     5 
18345 18343 18346     5 
18343 18346 18347     5 
18343 18346 18348     5 
18343 18346 18349     5 
18347 18346 18348     5 
18347 18346 18349     5 
18348 18346 18349     5 
18346 18349 18350     5 
18346 18349 18351     5 
18346 18349 18352     5 
18350 18349 18351     5 
18350 18349 18352     5 
18351 18349 18352     5 
18349 18352 18353     5 
18349 18352 18354     5 
18349 18352 18355     5 
18353 18352 18354     5 
18353 18352 18355     5 
18354 18352 18355     5 
18352 18355 18356     5 
18352 18355 18357     5 
18352 18355 18358     5 
18356 18355 18357     5 
18356 18355 18358     5 
18357 18355 18358     5 
18360 18359 18363     5 
18360 18359 18367     5 
18360 18359 18371     5 
18363 18359 18367     5 
18363 18359 18371     5 
18367 18359 18371     5 
18359 18360 18361     5 
18359 18360 18362     5 
18359 18360 18375     5 
18361 18360 18362     5 
18361 18360 18375     5 
18362 18360 18375     5 
18359 18363 18364     5 
18359 18363 18365     5 
18359 18363 18366     5 
18364 18363 18365     5 
18364 18363 18366     5 
18365 18363 18366     5 
18359 18367 18368     5 
18359 18367 18369     5 
18359 18367 18370     5 
18368 18367 18369     5 
18368 18367 18370     5 
18369 18367 18370     5 
18359 18371 18372     5 
18359 18371 18373     5 
18359 18371 18374     5 
18372 18371 18373     5 
18372 18371 18374     5 
18373 18371 18374     5 
18360 18375 18376     5 
18360 18375 18377     5 
18360 18375 18381     5 
18376 18375 18377     5 
18376 18375 18381     5 
18377 18375 18381     5 
18379 18378 18380     5 
18379 18378 18381     5 
18379 18378 18382     5 
18380 18378 18381     5 
18380 18378 18382     5 
18381 18378 18382     5 
18375 18381 18378     5 
18378 18382 18383     5 
18382 18383 18384     5 
18382 18383 18385     5 
18382 18383 18386     5 
18384 18383 18385     5 
18384 18383 18386     5 
18385 18383 18386     5 
18383 18386 18387     5 
18383 18386 18388     5 
18383 18386 18394     5 
18387 18386 18388     5 
18387 18386 18394     5 
18388 18386 18394     5 
18386 18388 18389     5 
18388 18389 18390     5 
18388 18389 18391     5 
18390 18389 18391     5 
18389 18391 18392     5 
18389 18391 18393     5 
18389 18391 18403     5 
18392 18391 18393     5 
18392 18391 18403     5 
18393 18391 18403     5 
18386 18394 18395     5 
18386 18394 18396     5 
18386 18394 18397     5 
18395 18394 18396     5 
18395 18394 18397     5 
18396 18394 18397     5 
18394 18397 18398     5 
18397 18398 18399     5 
18397 18398 18400     5 
18399 18398 18400     5 
18398 18400 18401     5 
18398 18400 18402     5 
18398 18400 18450     5 
18401 18400 18402     5 
18401 18400 18450     5 
18402 18400 18450     5 
18391 18403 18404     5 
18391 18403 18405     5 
18391 18403 18406     5 
18404 18403 18405     5 
18404 18403 18406     5 
18405 18403 18406     5 
18403 18406 18407     5 
18403 18406 18408     5 
18403 18406 18409     5 
18407 18406 18408     5 
18407 18406 18409     5 
18408 18406 18409     5 
18406 18409 18410     5 
18406 18409 18411     5 
18406 18409 18412     5 
18410 18409 18411     5 
18410 18409 18412     5 
18411 18409 18412     5 
18409 18412 18413     5 
18409 18412 18414     5 
18409 18412 18415     5 
18413 18412 18414     5 
18413 18412 18415     5 
18414 18412 18415     5 
18412 18415 18416     5 
18412 18415 18417     5 
18412 18415 18418     5 
18416 18415 18417     5 
18416 18415 18418     5 
18417 18415 18418     5 
18415 18418 18419     5 
18415 18418 18420     5 
18415 18418 18421     5 
18419 18418 18420     5 
18419 18418 18421     5 
18420 18418 18421     5 
18418 18421 18422     5 
18418 18421 18423     5 
18422 18421 18423     5 
18421 18423 18424     5 
18421 18423 18425     5 
18424 18423 18425     5 
18423 18425 18426     5 
18423 18425 18427     5 
18423 18425 18428     5 
18426 18425 18427     5 
18426 18425 18428     5 
18427 18425 18428     5 
18425 18428 18429     5 
18425 18428 18430     5 
18425 18428 18431     5 
18429 18428 18430     5 
18429 18428 18431     5 
18430 18428 18431     5 
18428 18431 18432     5 
18428 18431 18433     5 
18428 18431 18434     5 
18432 18431 18433     5 
18432 18431 18434     5 
18433 18431 18434     5 
18431 18434 18435     5 
18431 18434 18436     5 
18431 18434 18437     5 
18435 18434 18436     5 
18435 18434 18437     5 
18436 18434 18437     5 
18434 18437 18438     5 
18434 18437 18439     5 
18434 18437 18440     5 
18438 18437 18439     5 
18438 18437 18440     5 
18439 18437 18440     5 
18437 18440 18441     5 
18437 18440 18442     5 
18437 18440 18443     5 
18441 18440 18442     5 
18441 18440 18443     5 
18442 18440 18443     5 
18440 18443 18444     5 
18440 18443 18445     5 
18440 18443 18446     5 
18444 18443 18445     5 
18444 18443 18446     5 
18445 18443 18446     5 
18443 18446 18447     5 
18443 18446 18448     5 
18443 18446 18449     5 
18447 18446 18448     5 
18447 18446 18449     5 
18448 18446 18449     5 
18400 18450 18451     5 
18400 18450 18452     5 
18400 18450 18453     5 
18451 18450 18452     5 
18451 18450 18453     5 
18452 18450 18453     5 
18450 18453 18454     5 
18450 18453 18455     5 
18450 18453 18456     5 
18454 18453 18455     5 
18454 18453 18456     5 
18455 18453 18456     5 
18453 18456 18457     5 
18453 18456 18458     5 
18453 18456 18459     5 
18457 18456 18458     5 
18457 18456 18459     5 
18458 18456 18459     5 
18456 18459 18460     5 
18456 18459 18461     5 
18456 18459 18462     5 
18460 18459 18461     5 
18460 18459 18462     5 
18461 18459 18462     5 
18459 18462 18463     5 
18459 18462 18464     5 
18459 18462 18465     5 
18463 18462 18464     5 
18463 18462 18465     5 
18464 18462 18465     5 
18462 18465 18466     5 
18462 18465 18467     5 
18462 18465 18468     5 
18466 18465 18467     5 
18466 18465 18468     5 
18467 18465 18468     5 
18465 18468 18469     5 
18465 18468 18470     5 
18465 18468 18471     5 
18469 18468 18470     5 
18469 18468 18471     5 
18470 18468 18471     5 
18468 18471 18472     5 
18468 18471 18473     5 
18468 18471 18474     5 
18472 18471 18473     5 
18472 18471 18474     5 
18473 18471 18474     5 
18471 18474 18475     5 
18471 18474 18476     5 
18471 18474 18477     5 
18475 18474 18476     5 
18475 18474 18477     5 
18476 18474 18477     5 
18474 18477 18478     5 
18474 18477 18479     5 
18474 18477 18480     5 
18478 18477 18479     5 
18478 18477 18480     5 
18479 18477 18480     5 
18477 18480 18481     5 
18477 18480 18482     5 
18477 18480 18483     5 
18481 18480 18482     5 
18481 18480 18483     5 
18482 18480 18483     5 
18480 18483 18484     5 
18480 18483 18485     5 
18480 18483 18486     5 
18484 18483 18485     5 
18484 18483 18486     5 
18485 18483 18486     5 
18483 18486 18487     5 
18483 18486 18488     5 
18483 18486 18489     5 
18487 18486 18488     5 
18487 18486 18489     5 
18488 18486 18489     5 
18486 18489 18490     5 
18486 18489 18491     5 
18486 18489 18492     5 
18490 18489 18491     5 
18490 18489 18492     5 
18491 18489 18492     5 
18494 18493 18497     5 
18494 18493 18501     5 
18494 18493 18505     5 
18497 18493 18501     5 
18497 18493 18505     5 
18501 18493 18505     5 
18493 18494 18495     5 
18493 18494 18496     5 
18493 18494 18509     5 
18495 18494 18496     5 
18495 18494 18509     5 
18496 18494 18509     5 
18493 18497 18498     5 
18493 18497 18499     5 
18493 18497 18500     5 
18498 18497 18499     5 
18498 18497 18500     5 
18499 18497 18500     5 
18493 18501 18502     5 
18493 18501 18503     5 
18493 18501 18504     5 
18502 18501 18503     5 
18502 18501 18504     5 
18503 18501 18504     5 
18493 18505 18506     5 
18493 18505 18507     5 
18493 18505 18508     5 
18506 18505 18507     5 
18506 18505 18508     5 
18507 18505 18508     5 
18494 18509 18510     5 
18494 18509 18511     5 
18494 18509 18515     5 
18510 18509 18511     5 
18510 18509 18515     5 
18511 18509 18515     5 
18513 18512 18514     5 
18513 18512 18515     5 
18513 18512 18516     5 
18514 18512 18515     5 
18514 18512 18516     5 
18515 18512 18516     5 
18509 18515 18512     5 
18512 18516 18517     5 
18516 18517 18518     5 
18516 18517 18519     5 
18516 18517 18520     5 
18518 18517 18519     5 
18518 18517 18520     5 
18519 18517 18520     5 
18517 18520 18521     5 
18517 18520 18522     5 
18517 18520 18528     5 
18521 18520 18522     5 
18521 18520 18528     5 
18522 18520 18528     5 
18520 18522 18523     5 
18522 18523 18524     5 
18522 18523 18525     5 
18524 18523 18525     5 
18523 18525 18526     5 
18523 18525 18527     5 
18523 18525 18537     5 
18526 18525 18527     5 
18526 18525 18537     5 
18527 18525 18537     5 
18520 18528 18529     5 
18520 18528 18530     5 
18520 18528 18531     5 
18529 18528 18530     5 
18529 18528 18531     5 
18530 18528 18531     5 
18528 18531 18532     5 
18531 18532 18533     5 
18531 18532 18534     5 
18533 18532 18534     5 
18532 18534 18535     5 
18532 18534 18536     5 
18532 18534 18584     5 
18535 18534 18536     5 
18535 18534 18584     5 
18536 18534 18584     5 
18525 18537 18538     5 
18525 18537 18539     5 
18525 18537 18540     5 
18538 18537 18539     5 
18538 18537 18540     5 
18539 18537 18540     5 
18537 18540 18541     5 
18537 18540 18542     5 
18537 18540 18543     5 
18541 18540 18542     5 
18541 18540 18543     5 
18542 18540 18543     5 
18540 18543 18544     5 
18540 18543 18545     5 
18540 18543 18546     5 
18544 18543 18545     5 
18544 18543 18546     5 
18545 18543 18546     5 
18543 18546 18547     5 
18543 18546 18548     5 
18543 18546 18549     5 
18547 18546 18548     5 
18547 18546 18549     5 
18548 18546 18549     5 
18546 18549 18550     5 
18546 18549 18551     5 
18546 18549 18552     5 
18550 18549 18551     5 
18550 18549 18552     5 
18551 18549 18552     5 
18549 18552 18553     5 
18549 18552 18554     5 
18549 18552 18555     5 
18553 18552 18554     5 
18553 18552 18555     5 
18554 18552 18555     5 
18552 18555 18556     5 
18552 18555 18557     5 
18556 18555 18557     5 
18555 18557 18558     5 
18555 18557 18559     5 
18558 18557 18559     5 
18557 18559 18560     5 
18557 18559 18561     5 
18557 18559 18562     5 
18560 18559 18561     5 
18560 18559 18562     5 
18561 18559 18562     5 
18559 18562 18563     5 
18559 18562 18564     5 
18559 18562 18565     5 
18563 18562 18564     5 
18563 18562 18565     5 
18564 18562 18565     5 
18562 18565 18566     5 
18562 18565 18567     5 
18562 18565 18568     5 
18566 18565 18567     5 
18566 18565 18568     5 
18567 18565 18568     5 
18565 18568 18569     5 
18565 18568 18570     5 
18565 18568 18571     5 
18569 18568 18570     5 
18569 18568 18571     5 
18570 18568 18571     5 
18568 18571 18572     5 
18568 18571 18573     5 
18568 18571 18574     5 
18572 18571 18573     5 
18572 18571 18574     5 
18573 18571 18574     5 
18571 18574 18575     5 
18571 18574 18576     5 
18571 18574 18577     5 
18575 18574 18576     5 
18575 18574 18577     5 
18576 18574 18577     5 
18574 18577 18578     5 
18574 18577 18579     5 
18574 18577 18580     5 
18578 18577 18579     5 
18578 18577 18580     5 
18579 18577 18580     5 
18577 18580 18581     5 
18577 18580 18582     5 
18577 18580 18583     5 
18581 18580 18582     5 
18581 18580 18583     5 
18582 18580 18583     5 
18534 18584 18585     5 
18534 18584 18586     5 
18534 18584 18587     5 
18585 18584 18586     5 
18585 18584 18587     5 
18586 18584 18587     5 
18584 18587 18588     5 
18584 18587 18589     5 
18584 18587 18590     5 
18588 18587 18589     5 
18588 18587 18590     5 
18589 18587 18590     5 
18587 18590 18591     5 
18587 18590 18592     5 
18587 18590 18593     5 
18591 18590 18592     5 
18591 18590 18593     5 
18592 18590 18593     5 
18590 18593 18594     5 
18590 18593 18595     5 
18590 18593 18596     5 
18594 18593 18595     5 
18594 18593 18596     5 
18595 18593 18596     5 
18593 18596 18597     5 
18593 18596 18598     5 
18593 18596 18599     5 
18597 18596 18598     5 
18597 18596 18599     5 
18598 18596 18599     5 
18596 18599 18600     5 
18596 18599 18601     5 
18596 18599 18602     5 
18600 18599 18601     5 
18600 18599 18602     5 
18601 18599 18602     5 
18599 18602 18603     5 
18599 18602 18604     5 
18599 18602 18605     5 
18603 18602 18604     5 
18603 18602 18605     5 
18604 18602 18605     5 
18602 18605 18606     5 
18602 18605 18607     5 
18602 18605 18608     5 
18606 18605 18607     5 
18606 18605 18608     5 
18607 18605 18608     5 
18605 18608 18609     5 
18605 18608 18610     5 
18605 18608 18611     5 
18609 18608 18610     5 
18609 18608 18611     5 
18610 18608 18611     5 
18608 18611 18612     5 
18608 18611 18613     5 
18608 18611 18614     5 
18612 18611 18613     5 
18612 18611 18614     5 
18613 18611 18614     5 
18611 18614 18615     5 
18611 18614 18616     5 
18611 18614 18617     5 
18615 18614 18616     5 
18615 18614 18617     5 
18616 18614 18617     5 
18614 18617 18618     5 
18614 18617 18619     5 
18614 18617 18620     5 
18618 18617 18619     5 
18618 18617 18620     5 
18619 18617 18620     5 
18617 18620 18621     5 
18617 18620 18622     5 
18617 18620 18623     5 
18621 18620 18622     5 
18621 18620 18623     5 
18622 18620 18623     5 
18620 18623 18624     5 
18620 18623 18625     5 
18620 18623 18626     5 
18624 18623 18625     5 
18624 18623 18626     5 
18625 18623 18626     5 
18628 18627 18631     5 
18628 18627 18635     5 
18628 18627 18639     5 
18631 18627 18635     5 
18631 18627 18639     5 
18635 18627 18639     5 
18627 18628 18629     5 
18627 18628 18630     5 
18627 18628 18643     5 
18629 18628 18630     5 
18629 18628 18643     5 
18630 18628 18643     5 
18627 18631 18632     5 
18627 18631 18633     5 
18627 18631 18634     5 
18632 18631 18633     5 
18632 18631 18634     5 
18633 18631 18634     5 
18627 18635 18636     5 
18627 18635 18637     5 
18627 18635 18638     5 
18636 18635 18637     5 
18636 18635 18638     5 
18637 18635 18638     5 
18627 18639 18640     5 
18627 18639 18641     5 
18627 18639 18642     5 
18640 18639 18641     5 
18640 18639 18642     5 
18641 18639 18642     5 
18628 18643 18644     5 
18628 18643 18645     5 
18628 18643 18649     5 
18644 18643 18645     5 
18644 18643 18649     5 
18645 18643 18649     5 
18647 18646 18648     5 
18647 18646 18649     5 
18647 18646 18650     5 
18648 18646 18649     5 
18648 18646 18650     5 
18649 18646 18650     5 
18643 18649 18646     5 
18646 18650 18651     5 
18650 18651 18652     5 
18650 18651 18653     5 
18650 18651 18654     5 
18652 18651 18653     5 
18652 18651 18654     5 
18653 18651 18654     5 
18651 18654 18655     5 
18651 18654 18656     5 
18651 18654 18662     5 
18655 18654 18656     5 
18655 18654 18662     5 
18656 18654 18662     5 
18654 18656 18657     5 
18656 18657 18658     5 
18656 18657 18659     5 
18658 18657 18659     5 
18657 18659 18660     5 
18657 18659 18661     5 
18657 18659 18671     5 
18660 18659 18661     5 
18660 18659 18671     5 
18661 18659 18671     5 
18654 18662 18663     5 
18654 18662 18664     5 
18654 18662 18665     5 
18663 18662 18664     5 
18663 18662 18665     5 
18664 18662 18665     5 
18662 18665 18666     5 
18665 18666 18667     5 
18665 18666 18668     5 
18667 18666 18668     5 
18666 18668 18669     5 
18666 18668 18670     5 
18666 18668 18718     5 
18669 18668 18670     5 
18669 18668 18718     5 
18670 18668 18718     5 
18659 18671 18672     5 
18659 18671 18673     5 
18659 18671 18674     5 
18672 18671 18673     5 
18672 18671 18674     5 
18673 18671 18674     5 
18671 18674 18675     5 
18671 18674 18676     5 
18671 18674 18677     5 
18675 18674 18676     5 
18675 18674 18677     5 
18676 18674 18677     5 
18674 18677 18678     5 
18674 18677 18679     5 
18674 18677 18680     5 
18678 18677 18679     5 
18678 18677 18680     5 
18679 18677 18680     5 
18677 18680 18681     5 
18677 18680 18682     5 
18677 18680 18683     5 
18681 18680 18682     5 
18681 18680 18683     5 
18682 18680 18683     5 
18680 18683 18684     5 
18680 18683 18685     5 
18680 18683 18686     5 
18684 18683 18685     5 
18684 18683 18686     5 
18685 18683 18686     5 
18683 18686 18687     5 
18683 18686 18688     5 
18683 18686 18689     5 
18687 18686 18688     5 
18687 18686 18689     5 
18688 18686 18689     5 
18686 18689 18690     5 
18686 18689 18691     5 
18690 18689 18691     5 
18689 18691 18692     5 
18689 18691 18693     5 
18692 18691 18693     5 
18691 18693 18694     5 
18691 18693 18695     5 
18691 18693 18696     5 
18694 18693 18695     5 
18694 18693 18696     5 
18695 18693 18696     5 
18693 18696 18697     5 
18693 18696 18698     5 
18693 18696 18699     5 
18697 18696 18698     5 
18697 18696 18699     5 
18698 18696 18699     5 
18696 18699 18700     5 
18696 18699 18701     5 
18696 18699 18702     5 
18700 18699 18701     5 
18700 18699 18702     5 
18701 18699 18702     5 
18699 18702 18703     5 
18699 18702 18704     5 
18699 18702 18705     5 
18703 18702 18704     5 
18703 18702 18705     5 
18704 18702 18705     5 
18702 18705 18706     5 
18702 18705 18707     5 
18702 18705 18708     5 
18706 18705 18707     5 
18706 18705 18708     5 
18707 18705 18708     5 
18705 18708 18709     5 
18705 18708 18710     5 
18705 18708 18711     5 
18709 18708 18710     5 
18709 18708 18711     5 
18710 18708 18711     5 
18708 18711 18712     5 
18708 18711 18713     5 
18708 18711 18714     5 
18712 18711 18713     5 
18712 18711 18714     5 
18713 18711 18714     5 
18711 18714 18715     5 
18711 18714 18716     5 
18711 18714 18717     5 
18715 18714 18716     5 
18715 18714 18717     5 
18716 18714 18717     5 
18668 18718 18719     5 
18668 18718 18720     5 
18668 18718 18721     5 
18719 18718 18720     5 
18719 18718 18721     5 
18720 18718 18721     5 
18718 18721 18722     5 
18718 18721 18723     5 
18718 18721 18724     5 
18722 18721 18723     5 
18722 18721 18724     5 
18723 18721 18724     5 
18721 18724 18725     5 
18721 18724 18726     5 
18721 18724 18727     5 
18725 18724 18726     5 
18725 18724 18727     5 
18726 18724 18727     5 
18724 18727 18728     5 
18724 18727 18729     5 
18724 18727 18730     5 
18728 18727 18729     5 
18728 18727 18730     5 
18729 18727 18730     5 
18727 18730 18731     5 
18727 18730 18732     5 
18727 18730 18733     5 
18731 18730 18732     5 
18731 18730 18733     5 
18732 18730 18733     5 
18730 18733 18734     5 
18730 18733 18735     5 
18730 18733 18736     5 
18734 18733 18735     5 
18734 18733 18736     5 
18735 18733 18736     5 
18733 18736 18737     5 
18733 18736 18738     5 
18733 18736 18739     5 
18737 18736 18738     5 
18737 18736 18739     5 
18738 18736 18739     5 
18736 18739 18740     5 
18736 18739 18741     5 
18736 18739 18742     5 
18740 18739 18741     5 
18740 18739 18742     5 
18741 18739 18742     5 
18739 18742 18743     5 
18739 18742 18744     5 
18739 18742 18745     5 
18743 18742 18744     5 
18743 18742 18745     5 
18744 18742 18745     5 
18742 18745 18746     5 
18742 18745 18747     5 
18742 18745 18748     5 
18746 18745 18747     5 
18746 18745 18748     5 
18747 18745 18748     5 
18745 18748 18749     5 
18745 18748 18750     5 
18745 18748 18751     5 
18749 18748 18750     5 
18749 18748 18751     5 
18750 18748 18751     5 
18748 18751 18752     5 
18748 18751 18753     5 
18748 18751 18754     5 
18752 18751 18753     5 
18752 18751 18754     5 
18753 18751 18754     5 
18751 18754 18755     5 
18751 18754 18756     5 
18751 18754 18757     5 
18755 18754 18756     5 
18755 18754 18757     5 
18756 18754 18757     5 
18754 18757 18758     5 
18754 18757 18759     5 
18754 18757 18760     5 
18758 18757 18759     5 
18758 18757 18760     5 
18759 18757 18760     5 
18762 18761 18765     5 
18762 18761 18769     5 
18762 18761 18773     5 
18765 18761 18769     5 
18765 18761 18773     5 
18769 18761 18773     5 
18761 18762 18763     5 
18761 18762 18764     5 
18761 18762 18777     5 
18763 18762 18764     5 
18763 18762 18777     5 
18764 18762 18777     5 
18761 18765 18766     5 
18761 18765 18767     5 
18761 18765 18768     5 
18766 18765 18767     5 
18766 18765 18768     5 
18767 18765 18768     5 
18761 18769 18770     5 
18761 18769 18771     5 
18761 18769 18772     5 
18770 18769 18771     5 
18770 18769 18772     5 
18771 18769 18772     5 
18761 18773 18774     5 
18761 18773 18775     5 
18761 18773 18776     5 
18774 18773 18775     5 
18774 18773 18776     5 
18775 18773 18776     5 
18762 18777 18778     5 
18762 18777 18779     5 
18762 18777 18783     5 
18778 18777 18779     5 
18778 18777 18783     5 
18779 18777 18783     5 
18781 18780 18782     5 
18781 18780 18783     5 
18781 18780 18784     5 
18782 18780 18783     5 
18782 18780 18784     5 
18783 18780 18784     5 
18777 18783 18780     5 
18780 18784 18785     5 
18784 18785 18786     5 
18784 18785 18787     5 
18784 18785 18788     5 
18786 18785 18787     5 
18786 18785 18788     5 
18787 18785 18788     5 
18785 18788 18789     5 
18785 18788 18790     5 
18785 18788 18796     5 
18789 18788 18790     5 
18789 18788 18796     5 
18790 18788 18796     5 
18788 18790 18791     5 
18790 18791 18792     5 
18790 18791 18793     5 
18792 18791 18793     5 
18791 18793 18794     5 
18791 18793 18795     5 
18791 18793 18805     5 
18794 18793 18795     5 
18794 18793 18805     5 
18795 18793 18805     5 
18788 18796 18797     5 
18788 18796 18798     5 
18788 18796 18799     5 
18797 18796 18798     5 
18797 18796 18799     5 
18798 18796 18799     5 
18796 18799 18800     5 
18799 18800 18801     5 
18799 18800 18802     5 
18801 18800 18802     5 
18800 18802 18803     5 
18800 18802 18804     5 
18800 18802 18852     5 
18803 18802 18804     5 
18803 18802 18852     5 
18804 18802 18852     5 
18793 18805 18806     5 
18793 18805 18807     5 
18793 18805 18808     5 
18806 18805 18807     5 
18806 18805 18808     5 
18807 18805 18808     5 
18805 18808 18809     5 
18805 18808 18810     5 
18805 18808 18811     5 
18809 18808 18810     5 
18809 18808 18811     5 
18810 18808 18811     5 
18808 18811 18812     5 
18808 18811 18813     5 
18808 18811 18814     5 
18812 18811 18813     5 
18812 18811 18814     5 
18813 18811 18814     5 
18811 18814 18815     5 
18811 18814 18816     5 
18811 18814 18817     5 
18815 18814 18816     5 
18815 18814 18817     5 
18816 18814 18817     5 
18814 18817 18818     5 
18814 18817 18819     5 
18814 18817 18820     5 
18818 18817 18819     5 
18818 18817 18820     5 
18819 18817 18820     5 
18817 18820 18821     5 
18817 18820 18822     5 
18817 18820 18823     5 
18821 18820 18822     5 
18821 18820 18823     5 
18822 18820 18823     5 
18820 18823 18824     5 
18820 18823 18825     5 
18824 18823 18825     5 
18823 18825 18826     5 
18823 18825 18827     5 
18826 18825 18827     5 
18825 18827 18828     5 
18825 18827 18829     5 
18825 18827 18830     5 
18828 18827 18829     5 
18828 18827 18830     5 
18829 18827 18830     5 
18827 18830 18831     5 
18827 18830 18832     5 
18827 18830 18833     5 
18831 18830 18832     5 
18831 18830 18833     5 
18832 18830 18833     5 
18830 18833 18834     5 
18830 18833 18835     5 
18830 18833 18836     5 
18834 18833 18835     5 
18834 18833 18836     5 
18835 18833 18836     5 
18833 18836 18837     5 
18833 18836 18838     5 
18833 18836 18839     5 
18837 18836 18838     5 
18837 18836 18839     5 
18838 18836 18839     5 
18836 18839 18840     5 
18836 18839 18841     5 
18836 18839 18842     5 
18840 18839 18841     5 
18840 18839 18842     5 
18841 18839 18842     5 
18839 18842 18843     5 
18839 18842 18844     5 
18839 18842 18845     5 
18843 18842 18844     5 
18843 18842 18845     5 
18844 18842 18845     5 
18842 18845 18846     5 
18842 18845 18847     5 
18842 18845 18848     5 
18846 18845 18847     5 
18846 18845 18848     5 
18847 18845 18848     5 
18845 18848 18849     5 
18845 18848 18850     5 
18845 18848 18851     5 
18849 18848 18850     5 
18849 18848 18851     5 
18850 18848 18851     5 
18802 18852 18853     5 
18802 18852 18854     5 
18802 18852 18855     5 
18853 18852 18854     5 
18853 18852 18855     5 
18854 18852 18855     5 
18852 18855 18856     5 
18852 18855 18857     5 
18852 18855 18858     5 
18856 18855 18857     5 
18856 18855 18858     5 
18857 18855 18858     5 
18855 18858 18859     5 
18855 18858 18860     5 
18855 18858 18861     5 
18859 18858 18860     5 
18859 18858 18861     5 
18860 18858 18861     5 
18858 18861 18862     5 
18858 18861 18863     5 
18858 18861 18864     5 
18862 18861 18863     5 
18862 18861 18864     5 
18863 18861 18864     5 
18861 18864 18865     5 
18861 18864 18866     5 
18861 18864 18867     5 
18865 18864 18866     5 
18865 18864 18867     5 
18866 18864 18867     5 
18864 18867 18868     5 
18864 18867 18869     5 
18864 18867 18870     5 
18868 18867 18869     5 
18868 18867 18870     5 
18869 18867 18870     5 
18867 18870 18871     5 
18867 18870 18872     5 
18867 18870 18873     5 
18871 18870 18872     5 
18871 18870 18873     5 
18872 18870 18873     5 
18870 18873 18874     5 
18870 18873 18875     5 
18870 18873 18876     5 
18874 18873 18875     5 
18874 18873 18876     5 
18875 18873 18876     5 
18873 18876 18877     5 
18873 18876 18878     5 
18873 18876 18879     5 
18877 18876 18878     5 
18877 18876 18879     5 
18878 18876 18879     5 
18876 18879 18880     5 
18876 18879 18881     5 
18876 18879 18882     5 
18880 18879 18881     5 
18880 18879 18882     5 
18881 18879 18882     5 
18879 18882 18883     5 
18879 18882 18884     5 
18879 18882 18885     5 
18883 18882 18884     5 
18883 18882 18885     5 
18884 18882 18885     5 
18882 18885 18886     5 
18882 18885 18887     5 
18882 18885 18888     5 
18886 18885 18887     5 
18886 18885 18888     5 
18887 18885 18888     5 
18885 18888 18889     5 
18885 18888 18890     5 
18885 18888 18891     5 
18889 18888 18890     5 
18889 18888 18891     5 
18890 18888 18891     5 
18888 18891 18892     5 
18888 18891 18893     5 
18888 18891 18894     5 
18892 18891 18893     5 
18892 18891 18894     5 
18893 18891 18894     5 
18896 18895 18899     5 
18896 18895 18903     5 
18896 18895 18907     5 
18899 18895 18903     5 
18899 18895 18907     5 
18903 18895 18907     5 
18895 18896 18897     5 
18895 18896 18898     5 
18895 18896 18911     5 
18897 18896 18898     5 
18897 18896 18911     5 
18898 18896 18911     5 
18895 18899 18900     5 
18895 18899 18901     5 
18895 18899 18902     5 
18900 18899 18901     5 
18900 18899 18902     5 
18901 18899 18902     5 
18895 18903 18904     5 
18895 18903 18905     5 
18895 18903 18906     5 
18904 18903 18905     5 
18904 18903 18906     5 
18905 18903 18906     5 
18895 18907 18908     5 
18895 18907 18909     5 
18895 18907 18910     5 
18908 18907 18909     5 
18908 18907 18910     5 
18909 18907 18910     5 
18896 18911 18912     5 
18896 18911 18913     5 
18896 18911 18917     5 
18912 18911 18913     5 
18912 18911 18917     5 
18913 18911 18917     5 
18915 18914 18916     5 
18915 18914 18917     5 
18915 18914 18918     5 
18916 18914 18917     5 
18916 18914 18918     5 
18917 18914 18918     5 
18911 18917 18914     5 
18914 18918 18919     5 
18918 18919 18920     5 
18918 18919 18921     5 
18918 18919 18922     5 
18920 18919 18921     5 
18920 18919 18922     5 
18921 18919 18922     5 
18919 18922 18923     5 
18919 18922 18924     5 
18919 18922 18930     5 
18923 18922 18924     5 
18923 18922 18930     5 
18924 18922 18930     5 
18922 18924 18925     5 
18924 18925 18926     5 
18924 18925 18927     5 
18926 18925 18927     5 
18925 18927 18928     5 
18925 18927 18929     5 
18925 18927 18939     5 
18928 18927 18929     5 
18928 18927 18939     5 
18929 18927 18939     5 
18922 18930 18931     5 
18922 18930 18932     5 
18922 18930 18933     5 
18931 18930 18932     5 
18931 18930 18933     5 
18932 18930 18933     5 
18930 18933 18934     5 
18933 18934 18935     5 
18933 18934 18936     5 
18935 18934 18936     5 
18934 18936 18937     5 
18934 18936 18938     5 
18934 18936 18986     5 
18937 18936 18938     5 
18937 18936 18986     5 
18938 18936 18986     5 
18927 18939 18940     5 
18927 18939 18941     5 
18927 18939 18942     5 
18940 18939 18941     5 
18940 18939 18942     5 
18941 18939 18942     5 
18939 18942 18943     5 
18939 18942 18944     5 
18939 18942 18945     5 
18943 18942 18944     5 
18943 18942 18945     5 
18944 18942 18945     5 
18942 18945 18946     5 
18942 18945 18947     5 
18942 18945 18948     5 
18946 18945 18947     5 
18946 18945 18948     5 
18947 18945 18948     5 
18945 18948 18949     5 
18945 18948 18950     5 
18945 18948 18951     5 
18949 18948 18950     5 
18949 18948 18951     5 
18950 18948 18951     5 
18948 18951 18952     5 
18948 18951 18953     5 
18948 18951 18954     5 
18952 18951 18953     5 
18952 18951 18954     5 
18953 18951 18954     5 
18951 18954 18955     5 
18951 18954 18956     5 
18951 18954 18957     5 
18955 18954 18956     5 
18955 18954 18957     5 
18956 18954 18957     5 
18954 18957 18958     5 
18954 18957 18959     5 
18958 18957 18959     5 
18957 18959 18960     5 
18957 18959 18961     5 
18960 18959 18961     5 
18959 18961 18962     5 
18959 18961 18963     5 
18959 18961 18964     5 
18962 18961 18963     5 
18962 18961 18964     5 
18963 18961 18964     5 
18961 18964 18965     5 
18961 18964 18966     5 
18961 18964 18967     5 
18965 18964 18966     5 
18965 18964 18967     5 
18966 18964 18967     5 
18964 18967 18968     5 
18964 18967 18969     5 
18964 18967 18970     5 
18968 18967 18969     5 
18968 18967 18970     5 
18969 18967 18970     5 
18967 18970 18971     5 
18967 18970 18972     5 
18967 18970 18973     5 
18971 18970 18972     5 
18971 18970 18973     5 
18972 18970 18973     5 
18970 18973 18974     5 
18970 18973 18975     5 
18970 18973 18976     5 
18974 18973 18975     5 
18974 18973 18976     5 
18975 18973 18976     5 
18973 18976 18977     5 
18973 18976 18978     5 
18973 18976 18979     5 
18977 18976 18978     5 
18977 18976 18979     5 
18978 18976 18979     5 
18976 18979 18980     5 
18976 18979 18981     5 
18976 18979 18982     5 
18980 18979 18981     5 
18980 18979 18982     5 
18981 18979 18982     5 
18979 18982 18983     5 
18979 18982 18984     5 
18979 18982 18985     5 
18983 18982 18984     5 
18983 18982 18985     5 
18984 18982 18985     5 
18936 18986 18987     5 
18936 18986 18988     5 
18936 18986 18989     5 
18987 18986 18988     5 
18987 18986 18989     5 
18988 18986 18989     5 
18986 18989 18990     5 
18986 18989 18991     5 
18986 18989 18992     5 
18990 18989 18991     5 
18990 18989 18992     5 
18991 18989 18992     5 
18989 18992 18993     5 
18989 18992 18994     5 
18989 18992 18995     5 
18993 18992 18994     5 
18993 18992 18995     5 
18994 18992 18995     5 
18992 18995 18996     5 
18992 18995 18997     5 
18992 18995 18998     5 
18996 18995 18997     5 
18996 18995 18998     5 
18997 18995 18998     5 
18995 18998 18999     5 
18995 18998 19000     5 
18995 18998 19001     5 
18999 18998 19000     5 
18999 18998 19001     5 
19000 18998 19001     5 
18998 19001 19002     5 
18998 19001 19003     5 
18998 19001 19004     5 
19002 19001 19003     5 
19002 19001 19004     5 
19003 19001 19004     5 
19001 19004 19005     5 
19001 19004 19006     5 
19001 19004 19007     5 
19005 19004 19006     5 
19005 19004 19007     5 
19006 19004 19007     5 
19004 19007 19008     5 
19004 19007 19009     5 
19004 19007 19010     5 
19008 19007 19009     5 
19008 19007 19010     5 
19009 19007 19010     5 
19007 19010 19011     5 
19007 19010 19012     5 
19007 19010 19013     5 
19011 19010 19012     5 
19011 19010 19013     5 
19012 19010 19013     5 
19010 19013 19014     5 
19010 19013 19015     5 
19010 19013 19016     5 
19014 19013 19015     5 
19014 19013 19016     5 
19015 19013 19016     5 
19013 19016 19017     5 
19013 19016 19018     5 
19013 19016 19019     5 
19017 19016 19018     5 
19017 19016 19019     5 
19018 19016 19019     5 
19016 19019 19020     5 
19016 19019 19021     5 
19016 19019 19022     5 
19020 19019 19021     5 
19020 19019 19022     5 
19021 19019 19022     5 
19019 19022 19023     5 
19019 19022 19024     5 
19019 19022 19025     5 
19023 19022 19024     5 
19023 19022 19025     5 
19024 19022 19025     5 
19022 19025 19026     5 
19022 19025 19027     5 
19022 19025 19028     5 
19026 19025 19027     5 
19026 19025 19028     5 
19027 19025 19028     5 
19030 19029 19033     5 
19030 19029 19037     5 
19030 19029 19041     5 
19033 19029 19037     5 
19033 19029 19041     5 
19037 19029 19041     5 
19029 19030 19031     5 
19029 19030 19032     5 
19029 19030 19045     5 
19031 19030 19032     5 
19031 19030 19045     5 
19032 19030 19045     5 
19029 19033 19034     5 
19029 19033 19035     5 
19029 19033 19036     5 
19034 19033 19035     5 
19034 19033 19036     5 
19035 19033 19036     5 
19029 19037 19038     5 
19029 19037 19039     5 
19029 19037 19040     5 
19038 19037 19039     5 
19038 19037 19040     5 
19039 19037 19040     5 
19029 19041 19042     5 
19029 19041 19043     5 
19029 19041 19044     5 
19042 19041 19043     5 
19042 19041 19044     5 
19043 19041 19044     5 
19030 19045 19046     5 
19030 19045 19047     5 
19030 19045 19051     5 
19046 19045 19047     5 
19046 19045 19051     5 
19047 19045 19051     5 
19049 19048 19050     5 
19049 19048 19051     5 
19049 19048 19052     5 
19050 19048 19051     5 
19050 19048 19052     5 
19051 19048 19052     5 
19045 19051 19048     5 
19048 19052 19053     5 
19052 19053 19054     5 
19052 19053 19055     5 
19052 19053 19056     5 
19054 19053 19055     5 
19054 19053 19056     5 
19055 19053 19056     5 
19053 19056 19057     5 
19053 19056 19058     5 
19053 19056 19064     5 
19057 19056 19058     5 
19057 19056 19064     5 
19058 19056 19064     5 
19056 19058 19059     5 
19058 19059 19060     5 
19058 19059 19061     5 
19060 19059 19061     5 
19059 19061 19062     5 
19059 19061 19063     5 
19059 19061 19073     5 
19062 19061 19063     5 
19062 19061 19073     5 
19063 19061 19073     5 
19056 19064 19065     5 
19056 19064 19066     5 
19056 19064 19067     5 
19065 19064 19066     5 
19065 19064 19067     5 
19066 19064 19067     5 
19064 19067 19068     5 
19067 19068 19069     5 
19067 19068 19070     5 
19069 19068 19070     5 
19068 19070 19071     5 
19068 19070 19072     5 
19068 19070 19120     5 
19071 19070 19072     5 
19071 19070 19120     5 
19072 19070 19120     5 
19061 19073 19074     5 
19061 19073 19075     5 
19061 19073 19076     5 
19074 19073 19075     5 
19074 19073 19076     5 
19075 19073 19076     5 
19073 19076 19077     5 
19073 19076 19078     5 
19073 19076 19079     5 
19077 19076 19078     5 
19077 19076 19079     5 
19078 19076 19079     5 
19076 19079 19080     5 
19076 19079 19081     5 
19076 19079 19082     5 
19080 19079 19081     5 
19080 19079 19082     5 
19081 19079 19082     5 
19079 19082 19083     5 
19079 19082 19084     5 
19079 19082 19085     5 
19083 19082 19084     5 
19083 19082 19085     5 
19084 19082 19085     5 
19082 19085 19086     5 
19082 19085 19087     5 
19082 19085 19088     5 
19086 19085 19087     5 
19086 19085 19088     5 
19087 19085 19088     5 
19085 19088 19089     5 
19085 19088 19090     5 
19085 19088 19091     5 
19089 19088 19090     5 
19089 19088 19091     5 
19090 19088 19091     5 
19088 19091 19092     5 
19088 19091 19093     5 
19092 19091 19093     5 
19091 19093 19094     5 
19091 19093 19095     5 
19094 19093 19095     5 
19093 19095 19096     5 
19093 19095 19097     5 
19093 19095 19098     5 
19096 19095 19097     5 
19096 19095 19098     5 
19097 19095 19098     5 
19095 19098 19099     5 
19095 19098 19100     5 
19095 19098 19101     5 
19099 19098 19100     5 
19099 19098 19101     5 
19100 19098 19101     5 
19098 19101 19102     5 
19098 19101 19103     5 
19098 19101 19104     5 
19102 19101 19103     5 
19102 19101 19104     5 
19103 19101 19104     5 
19101 19104 19105     5 
19101 19104 19106     5 
19101 19104 19107     5 
19105 19104 19106     5 
19105 19104 19107     5 
19106 19104 19107     5 
19104 19107 19108     5 
19104 19107 19109     5 
19104 19107 19110     5 
19108 19107 19109     5 
19108 19107 19110     5 
19109 19107 19110     5 
19107 19110 19111     5 
19107 19110 19112     5 
19107 19110 19113     5 
19111 19110 19112     5 
19111 19110 19113     5 
19112 19110 19113     5 
19110 19113 19114     5 
19110 19113 19115     5 
19110 19113 19116     5 
19114 19113 19115     5 
19114 19113 19116     5 
19115 19113 19116     5 
19113 19116 19117     5 
19113 19116 19118     5 
19113 19116 19119     5 
19117 19116 19118     5 
19117 19116 19119     5 
19118 19116 19119     5 
19070 19120 19121     5 
19070 19120 19122     5 
19070 19120 19123     5 
19121 19120 19122     5 
19121 19120 19123     5 
19122 19120 19123     5 
19120 19123 19124     5 
19120 19123 19125     5 
19120 19123 19126     5 
19124 19123 19125     5 
19124 19123 19126     5 
19125 19123 19126     5 
19123 19126 19127     5 
19123 19126 19128     5 
19123 19126 19129     5 
19127 19126 19128     5 
19127 19126 19129     5 
19128 19126 19129     5 
19126 19129 19130     5 
19126 19129 19131     5 
19126 19129 19132     5 
19130 19129 19131     5 
19130 19129 19132     5 
19131 19129 19132     5 
19129 19132 19133     5 
19129 19132 19134     5 
19129 19132 19135     5 
19133 19132 19134     5 
19133 19132 19135     5 
19134 19132 19135     5 
19132 19135 19136     5 
19132 19135 19137     5 
19132 19135 19138     5 
19136 19135 19137     5 
19136 19135 19138     5 
19137 19135 19138     5 
19135 19138 19139     5 
19135 19138 19140     5 
19135 19138 19141     5 
19139 19138 19140     5 
19139 19138 19141     5 
19140 19138 19141     5 
19138 19141 19142     5 
19138 19141 19143     5 
19138 19141 19144     5 
19142 19141 19143     5 
19142 19141 19144     5 
19143 19141 19144     5 
19141 19144 19145     5 
19141 19144 19146     5 
19141 19144 19147     5 
19145 19144 19146     5 
19145 19144 19147     5 
19146 19144 19147     5 
19144 19147 19148     5 
19144 19147 19149     5 
19144 19147 19150     5 
19148 19147 19149     5 
19148 19147 19150     5 
19149 19147 19150     5 
19147 19150 19151     5 
19147 19150 19152     5 
19147 19150 19153     5 
19151 19150 19152     5 
19151 19150 19153     5 
19152 19150 19153     5 
19150 19153 19154     5 
19150 19153 19155     5 
19150 19153 19156     5 
19154 19153 19155     5 
19154 19153 19156     5 
19155 19153 19156     5 
19153 19156 19157     5 
19153 19156 19158     5 
19153 19156 19159     5 
19157 19156 19158     5 
19157 19156 19159     5 
19158 19156 19159     5 
19156 19159 19160     5 
19156 19159 19161     5 
19156 19159 19162     5 
19160 19159 19161     5 
19160 19159 19162     5 
19161 19159 19162     5 
19164 19163 19167     5 
19164 19163 19171     5 
19164 19163 19175     5 
19167 19163 19171     5 
19167 19163 19175     5 
19171 19163 19175     5 
19163 19164 19165     5 
19163 19164 19166     5 
19163 19164 19179     5 
19165 19164 19166     5 
19165 19164 19179     5 
19166 19164 19179     5 
19163 19167 19168     5 
19163 19167 19169     5 
19163 19167 19170     5 
19168 19167 19169     5 
19168 19167 19170     5 
19169 19167 19170     5 
19163 19171 19172     5 
19163 19171 19173     5 
19163 19171 19174     5 
19172 19171 19173     5 
19172 19171 19174     5 
19173 19171 19174     5 
19163 19175 19176     5 
19163 19175 19177     5 
19163 19175 19178     5 
19176 19175 19177     5 
19176 19175 19178     5 
19177 19175 19178     5 
19164 19179 19180     5 
19164 19179 19181     5 
19164 19179 19185     5 
19180 19179 19181     5 
19180 19179 19185     5 
19181 19179 19185     5 
19183 19182 19184     5 
19183 19182 19185     5 
19183 19182 19186     5 
19184 19182 19185     5 
19184 19182 19186     5 
19185 19182 19186     5 
19179 19185 19182     5 
19182 19186 19187     5 
19186 19187 19188     5 
19186 19187 19189     5 
19186 19187 19190     5 
19188 19187 19189     5 
19188 19187 19190     5 
19189 19187 19190     5 
19187 19190 19191     5 
19187 19190 19192     5 
19187 19190 19198     5 
19191 19190 19192     5 
19191 19190 19198     5 
19192 19190 19198     5 
19190 19192 19193     5 
19192 19193 19194     5 
19192 19193 19195     5 
19194 19193 19195     5 
19193 19195 19196     5 
19193 19195 19197     5 
19193 19195 19207     5 
19196 19195 19197     5 
19196 19195 19207     5 
19197 19195 19207     5 
19190 19198 19199     5 
19190 19198 19200     5 
19190 19198 19201     5 
19199 19198 19200     5 
19199 19198 19201     5 
19200 19198 19201     5 
19198 19201 19202     5 
19201 19202 19203     5 
19201 19202 19204     5 
19203 19202 19204     5 
19202 19204 19205     5 
19202 19204 19206     5 
19202 19204 19254     5 
19205 19204 19206     5 
19205 19204 19254     5 
19206 19204 19254     5 
19195 19207 19208     5 
19195 19207 19209     5 
19195 19207 19210     5 
19208 19207 19209     5 
19208 19207 19210     5 
19209 19207 19210     5 
19207 19210 19211     5 
19207 19210 19212     5 
19207 19210 19213     5 
19211 19210 19212     5 
19211 19210 19213     5 
19212 19210 19213     5 
19210 19213 19214     5 
19210 19213 19215     5 
19210 19213 19216     5 
19214 19213 19215     5 
19214 19213 19216     5 
19215 19213 19216     5 
19213 19216 19217     5 
19213 19216 19218     5 
19213 19216 19219     5 
19217 19216 19218     5 
19217 19216 19219     5 
19218 19216 19219     5 
19216 19219 19220     5 
19216 19219 19221     5 
19216 19219 19222     5 
19220 19219 19221     5 
19220 19219 19222     5 
19221 19219 19222     5 
19219 19222 19223     5 
19219 19222 19224     5 
19219 19222 19225     5 
19223 19222 19224     5 
19223 19222 19225     5 
19224 19222 19225     5 
19222 19225 19226     5 
19222 19225 19227     5 
19226 19225 19227     5 
19225 19227 19228     5 
19225 19227 19229     5 
19228 19227 19229     5 
19227 19229 19230     5 
19227 19229 19231     5 
19227 19229 19232     5 
19230 19229 19231     5 
19230 19229 19232     5 
19231 19229 19232     5 
19229 19232 19233     5 
19229 19232 19234     5 
19229 19232 19235     5 
19233 19232 19234     5 
19233 19232 19235     5 
19234 19232 19235     5 
19232 19235 19236     5 
19232 19235 19237     5 
19232 19235 19238     5 
19236 19235 19237     5 
19236 19235 19238     5 
19237 19235 19238     5 
19235 19238 19239     5 
19235 19238 19240     5 
19235 19238 19241     5 
19239 19238 19240     5 
19239 19238 19241     5 
19240 19238 19241     5 
19238 19241 19242     5 
19238 19241 19243     5 
19238 19241 19244     5 
19242 19241 19243     5 
19242 19241 19244     5 
19243 19241 19244     5 
19241 19244 19245     5 
19241 19244 19246     5 
19241 19244 19247     5 
19245 19244 19246     5 
19245 19244 19247     5 
19246 19244 19247     5 
19244 19247 19248     5 
19244 19247 19249     5 
19244 19247 19250     5 
19248 19247 19249     5 
19248 19247 19250     5 
19249 19247 19250     5 
19247 19250 19251     5 
19247 19250 19252     5 
19247 19250 19253     5 
19251 19250 19252     5 
19251 19250 19253     5 
19252 19250 19253     5 
19204 19254 19255     5 
19204 19254 19256     5 
19204 19254 19257     5 
19255 19254 19256     5 
19255 19254 19257     5 
19256 19254 19257     5 
19254 19257 19258     5 
19254 19257 19259     5 
19254 19257 19260     5 
19258 19257 19259     5 
19258 19257 19260     5 
19259 19257 19260     5 
19257 19260 19261     5 
19257 19260 19262     5 
19257 19260 19263     5 
19261 19260 19262     5 
19261 19260 19263     5 
19262 19260 19263     5 
19260 19263 19264     5 
19260 19263 19265     5 
19260 19263 19266     5 
19264 19263 19265     5 
19264 19263 19266     5 
19265 19263 19266     5 
19263 19266 19267     5 
19263 19266 19268     5 
19263 19266 19269     5 
19267 19266 19268     5 
19267 19266 19269     5 
19268 19266 19269     5 
19266 19269 19270     5 
19266 19269 19271     5 
19266 19269 19272     5 
19270 19269 19271     5 
19270 19269 19272     5 
19271 19269 19272     5 
19269 19272 19273     5 
19269 19272 19274     5 
19269 19272 19275     5 
19273 19272 19274     5 
19273 19272 19275     5 
19274 19272 19275     5 
19272 19275 19276     5 
19272 19275 19277     5 
19272 19275 19278     5 
19276 19275 19277     5 
19276 19275 19278     5 
19277 19275 19278     5 
19275 19278 19279     5 
19275 19278 19280     5 
19275 19278 19281     5 
19279 19278 19280     5 
19279 19278 19281     5 
19280 19278 19281     5 
19278 19281 19282     5 
19278 19281 19283     5 
19278 19281 19284     5 
19282 19281 19283     5 
19282 19281 19284     5 
19283 19281 19284     5 
19281 19284 19285     5 
19281 19284 19286     5 
19281 19284 19287     5 
19285 19284 19286     5 
19285 19284 19287     5 
19286 19284 19287     5 
19284 19287 19288     5 
19284 19287 19289     5 
19284 19287 19290     5 
19288 19287 19289     5 
19288 19287 19290     5 
19289 19287 19290     5 
19287 19290 19291     5 
19287 19290 19292     5 
19287 19290 19293     5 
19291 19290 19292     5 
19291 19290 19293     5 
19292 19290 19293     5 
19290 19293 19294     5 
19290 19293 19295     5 
19290 19293 19296     5 
19294 19293 19295     5 
19294 19293 19296     5 
19295 19293 19296     5 
19298 19297 19301     5 
19298 19297 19305     5 
19298 19297 19309     5 
19301 19297 19305     5 
19301 19297 19309     5 
19305 19297 19309     5 
19297 19298 19299     5 
19297 19298 19300     5 
19297 19298 19313     5 
19299 19298 19300     5 
19299 19298 19313     5 
19300 19298 19313     5 
19297 19301 19302     5 
19297 19301 19303     5 
19297 19301 19304     5 
19302 19301 19303     5 
19302 19301 19304     5 
19303 19301 19304     5 
19297 19305 19306     5 
19297 19305 19307     5 
19297 19305 19308     5 
19306 19305 19307     5 
19306 19305 19308     5 
19307 19305 19308     5 
19297 19309 19310     5 
19297 19309 19311     5 
19297 19309 19312     5 
19310 19309 19311     5 
19310 19309 19312     5 
19311 19309 19312     5 
19298 19313 19314     5 
19298 19313 19315     5 
19298 19313 19319     5 
19314 19313 19315     5 
19314 19313 19319     5 
19315 19313 19319     5 
19317 19316 19318     5 
19317 19316 19319     5 
19317 19316 19320     5 
19318 19316 19319     5 
19318 19316 19320     5 
19319 19316 19320     5 
19313 19319 19316     5 
19316 19320 19321     5 
19320 19321 19322     5 
19320 19321 19323     5 
19320 19321 19324     5 
19322 19321 19323     5 
19322 19321 19324     5 
19323 19321 19324     5 
19321 19324 19325     5 
19321 19324 19326     5 
19321 19324 19332     5 
19325 19324 19326     5 
19325 19324 19332     5 
19326 19324 19332     5 
19324 19326 19327     5 
19326 19327 19328     5 
19326 19327 19329     5 
19328 19327 19329     5 
19327 19329 19330     5 
19327 19329 19331     5 
19327 19329 19341     5 
19330 19329 19331     5 
19330 19329 19341     5 
19331 19329 19341     5 
19324 19332 19333     5 
19324 19332 19334     5 
19324 19332 19335     5 
19333 19332 19334     5 
19333 19332 19335     5 
19334 19332 19335     5 
19332 19335 19336     5 
19335 19336 19337     5 
19335 19336 19338     5 
19337 19336 19338     5 
19336 19338 19339     5 
19336 19338 19340     5 
19336 19338 19388     5 
19339 19338 19340     5 
19339 19338 19388     5 
19340 19338 19388     5 
19329 19341 19342     5 
19329 19341 19343     5 
19329 19341 19344     5 
19342 19341 19343     5 
19342 19341 19344     5 
19343 19341 19344     5 
19341 19344 19345     5 
19341 19344 19346     5 
19341 19344 19347     5 
19345 19344 19346     5 
19345 19344 19347     5 
19346 19344 19347     5 
19344 19347 19348     5 
19344 19347 19349     5 
19344 19347 19350     5 
19348 19347 19349     5 
19348 19347 19350     5 
19349 19347 19350     5 
19347 19350 19351     5 
19347 19350 19352     5 
19347 19350 19353     5 
19351 19350 19352     5 
19351 19350 19353     5 
19352 19350 19353     5 
19350 19353 19354     5 
19350 19353 19355     5 
19350 19353 19356     5 
19354 19353 19355     5 
19354 19353 19356     5 
19355 19353 19356     5 
19353 19356 19357     5 
19353 19356 19358     5 
19353 19356 19359     5 
19357 19356 19358     5 
19357 19356 19359     5 
19358 19356 19359     5 
19356 19359 19360     5 
19356 19359 19361     5 
19360 19359 19361     5 
19359 19361 19362     5 
19359 19361 19363     5 
19362 19361 19363     5 
19361 19363 19364     5 
19361 19363 19365     5 
19361 19363 19366     5 
19364 19363 19365     5 
19364 19363 19366     5 
19365 19363 19366     5 
19363 19366 19367     5 
19363 19366 19368     5 
19363 19366 19369     5 
19367 19366 19368     5 
19367 19366 19369     5 
19368 19366 19369     5 
19366 19369 19370     5 
19366 19369 19371     5 
19366 19369 19372     5 
19370 19369 19371     5 
19370 19369 19372     5 
19371 19369 19372     5 
19369 19372 19373     5 
19369 19372 19374     5 
19369 19372 19375     5 
19373 19372 19374     5 
19373 19372 19375     5 
19374 19372 19375     5 
19372 19375 19376     5 
19372 19375 19377     5 
19372 19375 19378     5 
19376 19375 19377     5 
19376 19375 19378     5 
19377 19375 19378     5 
19375 19378 19379     5 
19375 19378 19380     5 
19375 19378 19381     5 
19379 19378 19380     5 
19379 19378 19381     5 
19380 19378 19381     5 
19378 19381 19382     5 
19378 19381 19383     5 
19378 19381 19384     5 
19382 19381 19383     5 
19382 19381 19384     5 
19383 19381 19384     5 
19381 19384 19385     5 
19381 19384 19386     5 
19381 19384 19387     5 
19385 19384 19386     5 
19385 19384 19387     5 
19386 19384 19387     5 
19338 19388 19389     5 
19338 19388 19390     5 
19338 19388 19391     5 
19389 19388 19390     5 
19389 19388 19391     5 
19390 19388 19391     5 
19388 19391 19392     5 
19388 19391 19393     5 
19388 19391 19394     5 
19392 19391 19393     5 
19392 19391 19394     5 
19393 19391 19394     5 
19391 19394 19395     5 
19391 19394 19396     5 
19391 19394 19397     5 
19395 19394 19396     5 
19395 19394 19397     5 
19396 19394 19397     5 
19394 19397 19398     5 
19394 19397 19399     5 
19394 19397 19400     5 
19398 19397 19399     5 
19398 19397 19400     5 
19399 19397 19400     5 
19397 19400 19401     5 
19397 19400 19402     5 
19397 19400 19403     5 
19401 19400 19402     5 
19401 19400 19403     5 
19402 19400 19403     5 
19400 19403 19404     5 
19400 19403 19405     5 
19400 19403 19406     5 
19404 19403 19405     5 
19404 19403 19406     5 
19405 19403 19406     5 
19403 19406 19407     5 
19403 19406 19408     5 
19403 19406 19409     5 
19407 19406 19408     5 
19407 19406 19409     5 
19408 19406 19409     5 
19406 19409 19410     5 
19406 19409 19411     5 
19406 19409 19412     5 
19410 19409 19411     5 
19410 19409 19412     5 
19411 19409 19412     5 
19409 19412 19413     5 
19409 19412 19414     5 
19409 19412 19415     5 
19413 19412 19414     5 
19413 19412 19415     5 
19414 19412 19415     5 
19412 19415 19416     5 
19412 19415 19417     5 
19412 19415 19418     5 
19416 19415 19417     5 
19416 19415 19418     5 
19417 19415 19418     5 
19415 19418 19419     5 
19415 19418 19420     5 
19415 19418 19421     5 
19419 19418 19420     5 
19419 19418 19421     5 
19420 19418 19421     5 
19418 19421 19422     5 
19418 19421 19423     5 
19418 19421 19424     5 
19422 19421 19423     5 
19422 19421 19424     5 
19423 19421 19424     5 
19421 19424 19425     5 
19421 19424 19426     5 
19421 19424 19427     5 
19425 19424 19426     5 
19425 19424 19427     5 
19426 19424 19427     5 
19424 19427 19428     5 
19424 19427 19429     5 
19424 19427 19430     5 
19428 19427 19429     5 
19428 19427 19430     5 
19429 19427 19430     5 
19432 19431 19435     5 
19432 19431 19439     5 
19432 19431 19443     5 
19435 19431 19439     5 
19435 19431 19443     5 
19439 19431 19443     5 
19431 19432 19433     5 
19431 19432 19434     5 
19431 19432 19447     5 
19433 19432 19434     5 
19433 19432 19447     5 
19434 19432 19447     5 
19431 19435 19436     5 
19431 19435 19437     5 
19431 19435 19438     5 
19436 19435 19437     5 
19436 19435 19438     5 
19437 19435 19438     5 
19431 19439 19440     5 
19431 19439 19441     5 
19431 19439 19442     5 
19440 19439 19441     5 
19440 19439 19442     5 
19441 19439 19442     5 
19431 19443 19444     5 
19431 19443 19445     5 
19431 19443 19446     5 
19444 19443 19445     5 
19444 19443 19446     5 
19445 19443 19446     5 
19432 19447 19448     5 
19432 19447 19449     5 
19432 19447 19453     5 
19448 19447 19449     5 
19448 19447 19453     5 
19449 19447 19453     5 
19451 19450 19452     5 
19451 19450 19453     5 
19451 19450 19454     5 
19452 19450 19453     5 
19452 19450 19454     5 
19453 19450 19454     5 
19447 19453 19450     5 
19450 19454 19455     5 
19454 19455 19456     5 
19454 19455 19457     5 
19454 19455 19458     5 
19456 19455 19457     5 
19456 19455 19458     5 
19457 19455 19458     5 
19455 19458 19459     5 
19455 19458 19460     5 
19455 19458 19466     5 
19459 19458 19460     5 
19459 19458 19466     5 
19460 19458 19466     5 
19458 19460 19461     5 
19460 19461 19462     5 
19460 19461 19463     5 
19462 19461 19463     5 
19461 19463 19464     5 
19461 19463 19465     5 
19461 19463 19475     5 
19464 19463 19465     5 
19464 19463 19475     5 
19465 19463 19475     5 
19458 19466 19467     5 
19458 19466 19468     5 
19458 19466 19469     5 
19467 19466 19468     5 
19467 19466 19469     5 
19468 19466 19469     5 
19466 19469 19470     5 
19469 19470 19471     5 
19469 19470 19472     5 
19471 19470 19472     5 
19470 19472 19473     5 
19470 19472 19474     5 
19470 19472 19522     5 
19473 19472 19474     5 
19473 19472 19522     5 
19474 19472 19522     5 
19463 19475 19476     5 
19463 19475 19477     5 
19463 19475 19478     5 
19476 19475 19477     5 
19476 19475 19478     5 
19477 19475 19478     5 
19475 19478 19479     5 
19475 19478 19480     5 
19475 19478 19481     5 
19479 19478 19480     5 
19479 19478 19481     5 
19480 19478 19481     5 
19478 19481 19482     5 
19478 19481 19483     5 
19478 19481 19484     5 
19482 19481 19483     5 
19482 19481 19484     5 
19483 19481 19484     5 
19481 19484 19485     5 
19481 19484 19486     5 
19481 19484 19487     5 
19485 19484 19486     5 
19485 19484 19487     5 
19486 19484 19487     5 
19484 19487 19488     5 
19484 19487 19489     5 
19484 19487 19490     5 
19488 19487 19489     5 
19488 19487 19490     5 
19489 19487 19490     5 
19487 19490 19491     5 
19487 19490 19492     5 
19487 19490 19493     5 
19491 19490 19492     5 
19491 19490 19493     5 
19492 19490 19493     5 
19490 19493 19494     5 
19490 19493 19495     5 
19494 19493 19495     5 
19493 19495 19496     5 
19493 19495 19497     5 
19496 19495 19497     5 
19495 19497 19498     5 
19495 19497 19499     5 
19495 19497 19500     5 
19498 19497 19499     5 
19498 19497 19500     5 
19499 19497 19500     5 
19497 19500 19501     5 
19497 19500 19502     5 
19497 19500 19503     5 
19501 19500 19502     5 
19501 19500 19503     5 
19502 19500 19503     5 
19500 19503 19504     5 
19500 19503 19505     5 
19500 19503 19506     5 
19504 19503 19505     5 
19504 19503 19506     5 
19505 19503 19506     5 
19503 19506 19507     5 
19503 19506 19508     5 
19503 19506 19509     5 
19507 19506 19508     5 
19507 19506 19509     5 
19508 19506 19509     5 
19506 19509 19510     5 
19506 19509 19511     5 
19506 19509 19512     5 
19510 19509 19511     5 
19510 19509 19512     5 
19511 19509 19512     5 
19509 19512 19513     5 
19509 19512 19514     5 
19509 19512 19515     5 
19513 19512 19514     5 
19513 19512 19515     5 
19514 19512 19515     5 
19512 19515 19516     5 
19512 19515 19517     5 
19512 19515 19518     5 
19516 19515 19517     5 
19516 19515 19518     5 
19517 19515 19518     5 
19515 19518 19519     5 
19515 19518 19520     5 
19515 19518 19521     5 
19519 19518 19520     5 
19519 19518 19521     5 
19520 19518 19521     5 
19472 19522 19523     5 
19472 19522 19524     5 
19472 19522 19525     5 
19523 19522 19524     5 
19523 19522 19525     5 
19524 19522 19525     5 
19522 19525 19526     5 
19522 19525 19527     5 
19522 19525 19528     5 
19526 19525 19527     5 
19526 19525 19528     5 
19527 19525 19528     5 
19525 19528 19529     5 
19525 19528 19530     5 
19525 19528 19531     5 
19529 19528 19530     5 
19529 19528 19531     5 
19530 19528 19531     5 
19528 19531 19532     5 
19528 19531 19533     5 
19528 19531 19534     5 
19532 19531 19533     5 
19532 19531 19534     5 
19533 19531 19534     5 
19531 19534 19535     5 
19531 19534 19536     5 
19531 19534 19537     5 
19535 19534 19536     5 
19535 19534 19537     5 
19536 19534 19537     5 
19534 19537 19538     5 
19534 19537 19539     5 
19534 19537 19540     5 
19538 19537 19539     5 
19538 19537 19540     5 
19539 19537 19540     5 
19537 19540 19541     5 
19537 19540 19542     5 
19537 19540 19543     5 
19541 19540 19542     5 
19541 19540 19543     5 
19542 19540 19543     5 
19540 19543 19544     5 
19540 19543 19545     5 
19540 19543 19546     5 
19544 19543 19545     5 
19544 19543 19546     5 
19545 19543 19546     5 
19543 19546 19547     5 
19543 19546 19548     5 
19543 19546 19549     5 
19547 19546 19548     5 
19547 19546 19549     5 
19548 19546 19549     5 
19546 19549 19550     5 
19546 19549 19551     5 
19546 19549 19552     5 
19550 19549 19551     5 
19550 19549 19552     5 
19551 19549 19552     5 
19549 19552 19553     5 
19549 19552 19554     5 
19549 19552 19555     5 
19553 19552 19554     5 
19553 19552 19555     5 
19554 19552 19555     5 
19552 19555 19556     5 
19552 19555 19557     5 
19552 19555 19558     5 
19556 19555 19557     5 
19556 19555 19558     5 
19557 19555 19558     5 
19555 19558 19559     5 
19555 19558 19560     5 
19555 19558 19561     5 
19559 19558 19560     5 
19559 19558 19561     5 
19560 19558 19561     5 
19558 19561 19562     5 
19558 19561 19563     5 
19558 19561 19564     5 
19562 19561 19563     5 
19562 19561 19564     5 
19563 19561 19564     5 
19566 19565 19569     5 
19566 19565 19573     5 
19566 19565 19577     5 
19569 19565 19573     5 
19569 19565 19577     5 
19573 19565 19577     5 
19565 19566 19567     5 
19565 19566 19568     5 
19565 19566 19581     5 
19567 19566 19568     5 
19567 19566 19581     5 
19568 19566 19581     5 
19565 19569 19570     5 
19565 19569 19571     5 
19565 19569 19572     5 
19570 19569 19571     5 
19570 19569 19572     5 
19571 19569 19572     5 
19565 19573 19574     5 
19565 19573 19575     5 
19565 19573 19576     5 
19574 19573 19575     5 
19574 19573 19576     5 
19575 19573 19576     5 
19565 19577 19578     5 
19565 19577 19579     5 
19565 19577 19580     5 
19578 19577 19579     5 
19578 19577 19580     5 
19579 19577 19580     5 
19566 19581 19582     5 
19566 19581 19583     5 
19566 19581 19587     5 
19582 19581 19583     5 
19582 19581 19587     5 
19583 19581 19587     5 
19585 19584 19586     5 
19585 19584 19587     5 
19585 19584 19588     5 
19586 19584 19587     5 
19586 19584 19588     5 
19587 19584 19588     5 
19581 19587 19584     5 
19584 19588 19589     5 
19588 19589 19590     5 
19588 19589 19591     5 
19588 19589 19592     5 
19590 19589 19591     5 
19590 19589 19592     5 
19591 19589 19592     5 
19589 19592 19593     5 
19589 19592 19594     5 
19589 19592 19600     5 
19593 19592 19594     5 
19593 19592 19600     5 
19594 19592 19600     5 
19592 19594 19595     5 
19594 19595 19596     5 
19594 19595 19597     5 
19596 19595 19597     5 
19595 19597 19598     5 
19595 19597 19599     5 
19595 19597 19609     5 
19598 19597 19599     5 
19598 19597 19609     5 
19599 19597 19609     5 
19592 19600 19601     5 
19592 19600 19602     5 
19592 19600 19603     5 
19601 19600 19602     5 
19601 19600 19603     5 
19602 19600 19603     5 
19600 19603 19604     5 
19603 19604 19605     5 
19603 19604 19606     5 
19605 19604 19606     5 
19604 19606 19607     5 
19604 19606 19608     5 
19604 19606 19656     5 
19607 19606 19608     5 
19607 19606 19656     5 
19608 19606 19656     5 
19597 19609 19610     5 
19597 19609 19611     5 
19597 19609 19612     5 
19610 19609 19611     5 
19610 19609 19612     5 
19611 19609 19612     5 
19609 19612 19613     5 
19609 19612 19614     5 
19609 19612 19615     5 
19613 19612 19614     5 
19613 19612 19615     5 
19614 19612 19615     5 
19612 19615 19616     5 
19612 19615 19617     5 
19612 19615 19618     5 
19616 19615 19617     5 
19616 19615 19618     5 
19617 19615 19618     5 
19615 19618 19619     5 
19615 19618 19620     5 
19615 19618 19621     5 
19619 19618 19620     5 
19619 19618 19621     5 
19620 19618 19621     5 
19618 19621 19622     5 
19618 19621 19623     5 
19618 19621 19624     5 
19622 19621 19623     5 
19622 19621 19624     5 
19623 19621 19624     5 
19621 19624 19625     5 
19621 19624 19626     5 
19621 19624 19627     5 
19625 19624 19626     5 
19625 19624 19627     5 
19626 19624 19627     5 
19624 19627 19628     5 
19624 19627 19629     5 
19628 19627 19629     5 
19627 19629 19630     5 
19627 19629 19631     5 
19630 19629 19631     5 
19629 19631 19632     5 
19629 19631 19633     5 
19629 19631 19634     5 
19632 19631 19633     5 
19632 19631 19634     5 
19633 19631 19634     5 
19631 19634 19635     5 
19631 19634 19636     5 
19631 19634 19637     5 
19635 19634 19636     5 
19635 19634 19637     5 
19636 19634 19637     5 
19634 19637 19638     5 
19634 19637 19639     5 
19634 19637 19640     5 
19638 19637 19639     5 
19638 19637 19640     5 
19639 19637 19640     5 
19637 19640 19641     5 
19637 19640 19642     5 
19637 19640 19643     5 
19641 19640 19642     5 
19641 19640 19643     5 
19642 19640 19643     5 
19640 19643 19644     5 
19640 19643 19645     5 
19640 19643 19646     5 
19644 19643 19645     5 
19644 19643 19646     5 
19645 19643 19646     5 
19643 19646 19647     5 
19643 19646 19648     5 
19643 19646 19649     5 
19647 19646 19648     5 
19647 19646 19649     5 
19648 19646 19649     5 
19646 19649 19650     5 
19646 19649 19651     5 
19646 19649 19652     5 
19650 19649 19651     5 
19650 19649 19652     5 
19651 19649 19652     5 
19649 19652 19653     5 
19649 19652 19654     5 
19649 19652 19655     5 
19653 19652 19654     5 
19653 19652 19655     5 
19654 19652 19655     5 
19606 19656 19657     5 
19606 19656 19658     5 
19606 19656 19659     5 
19657 19656 19658     5 
19657 19656 19659     5 
19658 19656 19659     5 
19656 19659 19660     5 
19656 19659 19661     5 
19656 19659 19662     5 
19660 19659 19661     5 
19660 19659 19662     5 
19661 19659 19662     5 
19659 19662 19663     5 
19659 19662 19664     5 
19659 19662 19665     5 
19663 19662 19664     5 
19663 19662 19665     5 
19664 19662 19665     5 
19662 19665 19666     5 
19662 19665 19667     5 
19662 19665 19668     5 
19666 19665 19667     5 
19666 19665 19668     5 
19667 19665 19668     5 
19665 19668 19669     5 
19665 19668 19670     5 
19665 19668 19671     5 
19669 19668 19670     5 
19669 19668 19671     5 
19670 19668 19671     5 
19668 19671 19672     5 
19668 19671 19673     5 
19668 19671 19674     5 
19672 19671 19673     5 
19672 19671 19674     5 
19673 19671 19674     5 
19671 19674 19675     5 
19671 19674 19676     5 
19671 19674 19677     5 
19675 19674 19676     5 
19675 19674 19677     5 
19676 19674 19677     5 
19674 19677 19678     5 
19674 19677 19679     5 
19674 19677 19680     5 
19678 19677 19679     5 
19678 19677 19680     5 
19679 19677 19680     5 
19677 19680 19681     5 
19677 19680 19682     5 
19677 19680 19683     5 
19681 19680 19682     5 
19681 19680 19683     5 
19682 19680 19683     5 
19680 19683 19684     5 
19680 19683 19685     5 
19680 19683 19686     5 
19684 19683 19685     5 
19684 19683 19686     5 
19685 19683 19686     5 
19683 19686 19687     5 
19683 19686 19688     5 
19683 19686 19689     5 
19687 19686 19688     5 
19687 19686 19689     5 
19688 19686 19689     5 
19686 19689 19690     5 
19686 19689 19691     5 
19686 19689 19692     5 
19690 19689 19691     5 
19690 19689 19692     5 
19691 19689 19692     5 
19689 19692 19693     5 
19689 19692 19694     5 
19689 19692 19695     5 
19693 19692 19694     5 
19693 19692 19695     5 
19694 19692 19695     5 
19692 19695 19696     5 
19692 19695 19697     5 
19692 19695 19698     5 
19696 19695 19697     5 
19696 19695 19698     5 
19697 19695 19698     5 
19700 19699 19703     5 
19700 19699 19707     5 
19700 19699 19711     5 
19703 19699 19707     5 
19703 19699 19711     5 
19707 19699 19711     5 
19699 19700 19701     5 
19699 19700 19702     5 
19699 19700 19715     5 
19701 19700 19702     5 
19701 19700 19715     5 
19702 19700 19715     5 
19699 19703 19704     5 
19699 19703 19705     5 
19699 19703 19706     5 
19704 19703 19705     5 
19704 19703 19706     5 
19705 19703 19706     5 
19699 19707 19708     5 
19699 19707 19709     5 
19699 19707 19710     5 
19708 19707 19709     5 
19708 19707 19710     5 
19709 19707 19710     5 
19699 19711 19712     5 
19699 19711 19713     5 
19699 19711 19714     5 
19712 19711 19713     5 
19712 19711 19714     5 
19713 19711 19714     5 
19700 19715 19716     5 
19700 19715 19717     5 
19700 19715 19721     5 
19716 19715 19717     5 
19716 19715 19721     5 
19717 19715 19721     5 
19719 19718 19720     5 
19719 19718 19721     5 
19719 19718 19722     5 
19720 19718 19721     5 
19720 19718 19722     5 
19721 19718 19722     5 
19715 19721 19718     5 
19718 19722 19723     5 
19722 19723 19724     5 
19722 19723 19725     5 
19722 19723 19726     5 
19724 19723 19725     5 
19724 19723 19726     5 
19725 19723 19726     5 
19723 19726 19727     5 
19723 19726 19728     5 
19723 19726 19734     5 
19727 19726 19728     5 
19727 19726 19734     5 
19728 19726 19734     5 
19726 19728 19729     5 
19728 19729 19730     5 
19728 19729 19731     5 
19730 19729 19731     5 
19729 19731 19732     5 
19729 19731 19733     5 
19729 19731 19743     5 
19732 19731 19733     5 
19732 19731 19743     5 
19733 19731 19743     5 
19726 19734 19735     5 
19726 19734 19736     5 
19726 19734 19737     5 
19735 19734 19736     5 
19735 19734 19737     5 
19736 19734 19737     5 
19734 19737 19738     5 
19737 19738 19739     5 
19737 19738 19740     5 
19739 19738 19740     5 
19738 19740 19741     5 
19738 19740 19742     5 
19738 19740 19790     5 
19741 19740 19742     5 
19741 19740 19790     5 
19742 19740 19790     5 
19731 19743 19744     5 
19731 19743 19745     5 
19731 19743 19746     5 
19744 19743 19745     5 
19744 19743 19746     5 
19745 19743 19746     5 
19743 19746 19747     5 
19743 19746 19748     5 
19743 19746 19749     5 
19747 19746 19748     5 
19747 19746 19749     5 
19748 19746 19749     5 
19746 19749 19750     5 
19746 19749 19751     5 
19746 19749 19752     5 
19750 19749 19751     5 
19750 19749 19752     5 
19751 19749 19752     5 
19749 19752 19753     5 
19749 19752 19754     5 
19749 19752 19755     5 
19753 19752 19754     5 
19753 19752 19755     5 
19754 19752 19755     5 
19752 19755 19756     5 
19752 19755 19757     5 
19752 19755 19758     5 
19756 19755 19757     5 
19756 19755 19758     5 
19757 19755 19758     5 
19755 19758 19759     5 
19755 19758 19760     5 
19755 19758 19761     5 
19759 19758 19760     5 
19759 19758 19761     5 
19760 19758 19761     5 
19758 19761 19762     5 
19758 19761 19763     5 
19762 19761 19763     5 
19761 19763 19764     5 
19761 19763 19765     5 
19764 19763 19765     5 
19763 19765 19766     5 
19763 19765 19767     5 
19763 19765 19768     5 
19766 19765 19767     5 
19766 19765 19768     5 
19767 19765 19768     5 
19765 19768 19769     5 
19765 19768 19770     5 
19765 19768 19771     5 
19769 19768 19770     5 
19769 19768 19771     5 
19770 19768 19771     5 
19768 19771 19772     5 
19768 19771 19773     5 
19768 19771 19774     5 
19772 19771 19773     5 
19772 19771 19774     5 
19773 19771 19774     5 
19771 19774 19775     5 
19771 19774 19776     5 
19771 19774 19777     5 
19775 19774 19776     5 
19775 19774 19777     5 
19776 19774 19777     5 
19774 19777 19778     5 
19774 19777 19779     5 
19774 19777 19780     5 
19778 19777 19779     5 
19778 19777 19780     5 
19779 19777 19780     5 
19777 19780 19781     5 
19777 19780 19782     5 
19777 19780 19783     5 
19781 19780 19782     5 
19781 19780 19783     5 
19782 19780 19783     5 
19780 19783 19784     5 
19780 19783 19785     5 
19780 19783 19786     5 
19784 19783 19785     5 
19784 19783 19786     5 
19785 19783 19786     5 
19783 19786 19787     5 
19783 19786 19788     5 
19783 19786 19789     5 
19787 19786 19788     5 
19787 19786 19789     5 
19788 19786 19789     5 
19740 19790 19791     5 
19740 19790 19792     5 
19740 19790 19793     5 
19791 19790 19792     5 
19791 19790 19793     5 
19792 19790 19793     5 
19790 19793 19794     5 
19790 19793 19795     5 
19790 19793 19796     5 
19794 19793 19795     5 
19794 19793 19796     5 
19795 19793 19796     5 
19793 19796 19797     5 
19793 19796 19798     5 
19793 19796 19799     5 
19797 19796 19798     5 
19797 19796 19799     5 
19798 19796 19799     5 
19796 19799 19800     5 
19796 19799 19801     5 
19796 19799 19802     5 
19800 19799 19801     5 
19800 19799 19802     5 
19801 19799 19802     5 
19799 19802 19803     5 
19799 19802 19804     5 
19799 19802 19805     5 
19803 19802 19804     5 
19803 19802 19805     5 
19804 19802 19805     5 
19802 19805 19806     5 
19802 19805 19807     5 
19802 19805 19808     5 
19806 19805 19807     5 
19806 19805 19808     5 
19807 19805 19808     5 
19805 19808 19809     5 
19805 19808 19810     5 
19805 19808 19811     5 
19809 19808 19810     5 
19809 19808 19811     5 
19810 19808 19811     5 
19808 19811 19812     5 
19808 19811 19813     5 
19808 19811 19814     5 
19812 19811 19813     5 
19812 19811 19814     5 
19813 19811 19814     5 
19811 19814 19815     5 
19811 19814 19816     5 
19811 19814 19817     5 
19815 19814 19816     5 
19815 19814 19817     5 
19816 19814 19817     5 
19814 19817 19818     5 
19814 19817 19819     5 
19814 19817 19820     5 
19818 19817 19819     5 
19818 19817 19820     5 
19819 19817 19820     5 
19817 19820 19821     5 
19817 19820 19822     5 
19817 19820 19823     5 
19821 19820 19822     5 
19821 19820 19823     5 
19822 19820 19823     5 
19820 19823 19824     5 
19820 19823 19825     5 
19820 19823 19826     5 
19824 19823 19825     5 
19824 19823 19826     5 
19825 19823 19826     5 
19823 19826 19827     5 
19823 19826 19828     5 
19823 19826 19829     5 
19827 19826 19828     5 
19827 19826 19829     5 
19828 19826 19829     5 
19826 19829 19830     5 
19826 19829 19831     5 
19826 19829 19832     5 
19830 19829 19831     5 
19830 19829 19832     5 
19831 19829 19832     5 
19834 19833 19837     5 
19834 19833 19841     5 
19834 19833 19845     5 
19837 19833 19841     5 
19837 19833 19845     5 
19841 19833 19845     5 
19833 19834 19835     5 
19833 19834 19836     5 
19833 19834 19849     5 
19835 19834 19836     5 
19835 19834 19849     5 
19836 19834 19849     5 
19833 19837 19838     5 
19833 19837 19839     5 
19833 19837 19840     5 
19838 19837 19839     5 
19838 19837 19840     5 
19839 19837 19840     5 
19833 19841 19842     5 
19833 19841 19843     5 
19833 19841 19844     5 
19842 19841 19843     5 
19842 19841 19844     5 
19843 19841 19844     5 
19833 19845 19846     5 
19833 19845 19847     5 
19833 19845 19848     5 
19846 19845 19847     5 
19846 19845 19848     5 
19847 19845 19848     5 
19834 19849 19850     5 
19834 19849 19851     5 
19834 19849 19855     5 
19850 19849 19851     5 
19850 19849 19855     5 
19851 19849 19855     5 
19853 19852 19854     5 
19853 19852 19855     5 
19853 19852 19856     5 
19854 19852 19855     5 
19854 19852 19856     5 
19855 19852 19856     5 
19849 19855 19852     5 
19852 19856 19857     5 
19856 19857 19858     5 
19856 19857 19859     5 
19856 19857 19860     5 
19858 19857 19859     5 
19858 19857 19860     5 
19859 19857 19860     5 
19857 19860 19861     5 
19857 19860 19862     5 
19857 19860 19868     5 
19861 19860 19862     5 
19861 19860 19868     5 
19862 19860 19868     5 
19860 19862 19863     5 
19862 19863 19864     5 
19862 19863 19865     5 
19864 19863 19865     5 
19863 19865 19866     5 
19863 19865 19867     5 
19863 19865 19877     5 
19866 19865 19867     5 
19866 19865 19877     5 
19867 19865 19877     5 
19860 19868 19869     5 
19860 19868 19870     5 
19860 19868 19871     5 
19869 19868 19870     5 
19869 19868 19871     5 
19870 19868 19871     5 
19868 19871 19872     5 
19871 19872 19873     5 
19871 19872 19874     5 
19873 19872 19874     5 
19872 19874 19875     5 
19872 19874 19876     5 
19872 19874 19924     5 
19875 19874 19876     5 
19875 19874 19924     5 
19876 19874 19924     5 
19865 19877 19878     5 
19865 19877 19879     5 
19865 19877 19880     5 
19878 19877 19879     5 
19878 19877 19880     5 
19879 19877 19880     5 
19877 19880 19881     5 
19877 19880 19882     5 
19877 19880 19883     5 
19881 19880 19882     5 
19881 19880 19883     5 
19882 19880 19883     5 
19880 19883 19884     5 
19880 19883 19885     5 
19880 19883 19886     5 
19884 19883 19885     5 
19884 19883 19886     5 
19885 19883 19886     5 
19883 19886 19887     5 
19883 19886 19888     5 
19883 19886 19889     5 
19887 19886 19888     5 
19887 19886 19889     5 
19888 19886 19889     5 
19886 19889 19890     5 
19886 19889 19891     5 
19886 19889 19892     5 
19890 19889 19891     5 
19890 19889 19892     5 
19891 19889 19892     5 
19889 19892 19893     5 
19889 19892 19894     5 
19889 19892 19895     5 
19893 19892 19894     5 
19893 19892 19895     5 
19894 19892 19895     5 
19892 19895 19896     5 
19892 19895 19897     5 
19896 19895 19897     5 
19895 19897 19898     5 
19895 19897 19899     5 
19898 19897 19899     5 
19897 19899 19900     5 
19897 19899 19901     5 
19897 19899 19902     5 
19900 19899 19901     5 
19900 19899 19902     5 
19901 19899 19902     5 
19899 19902 19903     5 
19899 19902 19904     5 
19899 19902 19905     5 
19903 19902 19904     5 
19903 19902 19905     5 
19904 19902 19905     5 
19902 19905 19906     5 
19902 19905 19907     5 
19902 19905 19908     5 
19906 19905 19907     5 
19906 19905 19908     5 
19907 19905 19908     5 
19905 19908 19909     5 
19905 19908 19910     5 
19905 19908 19911     5 
19909 19908 19910     5 
19909 19908 19911     5 
19910 19908 19911     5 
19908 19911 19912     5 
19908 19911 19913     5 
19908 19911 19914     5 
19912 19911 19913     5 
19912 19911 19914     5 
19913 19911 19914     5 
19911 19914 19915     5 
19911 19914 19916     5 
19911 19914 19917     5 
19915 19914 19916     5 
19915 19914 19917     5 
19916 19914 19917     5 
19914 19917 19918     5 
19914 19917 19919     5 
19914 19917 19920     5 
19918 19917 19919     5 
19918 19917 19920     5 
19919 19917 19920     5 
19917 19920 19921     5 
19917 19920 19922     5 
19917 19920 19923     5 
19921 19920 19922     5 
19921 19920 19923     5 
19922 19920 19923     5 
19874 19924 19925     5 
19874 19924 19926     5 
19874 19924 19927     5 
19925 19924 19926     5 
19925 19924 19927     5 
19926 19924 19927     5 
19924 19927 19928     5 
19924 19927 19929     5 
19924 19927 19930     5 
19928 19927 19929     5 
19928 19927 19930     5 
19929 19927 19930     5 
19927 19930 19931     5 
19927 19930 19932     5 
19927 19930 19933     5 
19931 19930 19932     5 
19931 19930 19933     5 
19932 19930 19933     5 
19930 19933 19934     5 
19930 19933 19935     5 
19930 19933 19936     5 
19934 19933 19935     5 
19934 19933 19936     5 
19935 19933 19936     5 
19933 19936 19937     5 
19933 19936 19938     5 
19933 19936 19939     5 
19937 19936 19938     5 
19937 19936 19939     5 
19938 19936 19939     5 
19936 19939 19940     5 
19936 19939 19941     5 
19936 19939 19942     5 
19940 19939 19941     5 
19940 19939 19942     5 
19941 19939 19942     5 
19939 19942 19943     5 
19939 19942 19944     5 
19939 19942 19945     5 
19943 19942 19944     5 
19943 19942 19945     5 
19944 19942 19945     5 
19942 19945 19946     5 
19942 19945 19947     5 
19942 19945 19948     5 
19946 19945 19947     5 
19946 19945 19948     5 
19947 19945 19948     5 
19945 19948 19949     5 
19945 19948 19950     5 
19945 19948 19951     5 
19949 19948 19950     5 
19949 19948 19951     5 
19950 19948 19951     5 
19948 19951 19952     5 
19948 19951 19953     5 
19948 19951 19954     5 
19952 19951 19953     5 
19952 19951 19954     5 
19953 19951 19954     5 
19951 19954 19955     5 
19951 19954 19956     5 
19951 19954 19957     5 
19955 19954 19956     5 
19955 19954 19957     5 
19956 19954 19957     5 
19954 19957 19958     5 
19954 19957 19959     5 
19954 19957 19960     5 
19958 19957 19959     5 
19958 19957 19960     5 
19959 19957 19960     5 
19957 19960 19961     5 
19957 19960 19962     5 
19957 19960 19963     5 
19961 19960 19962     5 
19961 19960 19963     5 
19962 19960 19963     5 
19960 19963 19964     5 
19960 19963 19965     5 
19960 19963 19966     5 
19964 19963 19965     5 
19964 19963 19966     5 
19965 19963 19966     5 
19968 19967 19971     5 
19968 19967 19975     5 
19968 19967 19979     5 
19971 19967 19975     5 
19971 19967 19979     5 
19975 19967 19979     5 
19967 19968 19969     5 
19967 19968 19970     5 
19967 19968 19983     5 
19969 19968 19970     5 
19969 19968 19983     5 
19970 19968 19983     5 
19967 19971 19972     5 
19967 19971 19973     5 
19967 19971 19974     5 
19972 19971 19973     5 
19972 19971 19974     5 
19973 19971 19974     5 
19967 19975 19976     5 
19967 19975 19977     5 
19967 19975 19978     5 
19976 19975 19977     5 
19976 19975 19978     5 
19977 19975 19978     5 
19967 19979 19980     5 
19967 19979 19981     5 
19967 19979 19982     5 
19980 19979 19981     5 
19980 19979 19982     5 
19981 19979 19982     5 
19968 19983 19984     5 
19968 19983 19985     5 
19968 19983 19989     5 
19984 19983 19985     5 
19984 19983 19989     5 
19985 19983 19989     5 
19987 19986 19988     5 
19987 19986 19989     5 
19987 19986 19990     5 
19988 19986 19989     5 
19988 19986 19990     5 
19989 19986 19990     5 
19983 19989 19986     5 
19986 19990 19991     5 
19990 19991 19992     5 
19990 19991 19993     5 
19990 19991 19994     5 
19992 19991 19993     5 
19992 19991 19994     5 
19993 19991 19994     5 
19991 19994 19995     5 
19991 19994 19996     5 
19991 19994 20002     5 
19995 19994 19996     5 
19995 19994 20002     5 
19996 19994 20002     5 
19994 19996 19997     5 
19996 19997 19998     5 
19996 19997 19999     5 
19998 19997 19999     5 
19997 19999 20000     5 
19997 19999 20001     5 
19997 19999 20011     5 
20000 19999 20001     5 
20000 19999 20011     5 
20001 19999 20011     5 
19994 20002 20003     5 
19994 20002 20004     5 
19994 20002 20005     5 
20003 20002 20004     5 
20003 20002 20005     5 
20004 20002 20005     5 
20002 20005 20006     5 
20005 20006 20007     5 
20005 20006 20008     5 
20007 20006 20008     5 
20006 20008 20009     5 
20006 20008 20010     5 
20006 20008 20058     5 
20009 20008 20010     5 
20009 20008 20058     5 
20010 20008 20058     5 
19999 20011 20012     5 
19999 20011 20013     5 
19999 20011 20014     5 
20012 20011 20013     5 
20012 20011 20014     5 
20013 20011 20014     5 
20011 20014 20015     5 
20011 20014 20016     5 
20011 20014 20017     5 
20015 20014 20016     5 
20015 20014 20017     5 
20016 20014 20017     5 
20014 20017 20018     5 
20014 20017 20019     5 
20014 20017 20020     5 
20018 20017 20019     5 
20018 20017 20020     5 
20019 20017 20020     5 
20017 20020 20021     5 
20017 20020 20022     5 
20017 20020 20023     5 
20021 20020 20022     5 
20021 20020 20023     5 
20022 20020 20023     5 
20020 20023 20024     5 
20020 20023 20025     5 
20020 20023 20026     5 
20024 20023 20025     5 
20024 20023 20026     5 
20025 20023 20026     5 
20023 20026 20027     5 
20023 20026 20028     5 
20023 20026 20029     5 
20027 20026 20028     5 
20027 20026 20029     5 
20028 20026 20029     5 
20026 20029 20030     5 
20026 20029 20031     5 
20030 20029 20031     5 
20029 20031 20032     5 
20029 20031 20033     5 
20032 20031 20033     5 
20031 20033 20034     5 
20031 20033 20035     5 
20031 20033 20036     5 
20034 20033 20035     5 
20034 20033 20036     5 
20035 20033 20036     5 
20033 20036 20037     5 
20033 20036 20038     5 
20033 20036 20039     5 
20037 20036 20038     5 
20037 20036 20039     5 
20038 20036 20039     5 
20036 20039 20040     5 
20036 20039 20041     5 
20036 20039 20042     5 
20040 20039 20041     5 
20040 20039 20042     5 
20041 20039 20042     5 
20039 20042 20043     5 
20039 20042 20044     5 
20039 20042 20045     5 
20043 20042 20044     5 
20043 20042 20045     5 
20044 20042 20045     5 
20042 20045 20046     5 
20042 20045 20047     5 
20042 20045 20048     5 
20046 20045 20047     5 
20046 20045 20048     5 
20047 20045 20048     5 
20045 20048 20049     5 
20045 20048 20050     5 
20045 20048 20051     5 
20049 20048 20050     5 
20049 20048 20051     5 
20050 20048 20051     5 
20048 20051 20052     5 
20048 20051 20053     5 
20048 20051 20054     5 
20052 20051 20053     5 
20052 20051 20054     5 
20053 20051 20054     5 
20051 20054 20055     5 
20051 20054 20056     5 
20051 20054 20057     5 
20055 20054 20056     5 
20055 20054 20057     5 
20056 20054 20057     5 
20008 20058 20059     5 
20008 20058 20060     5 
20008 20058 20061     5 
20059 20058 20060     5 
20059 20058 20061     5 
20060 20058 20061     5 
20058 20061 20062     5 
20058 20061 20063     5 
20058 20061 20064     5 
20062 20061 20063     5 
20062 20061 20064     5 
20063 20061 20064     5 
20061 20064 20065     5 
20061 20064 20066     5 
20061 20064 20067     5 
20065 20064 20066     5 
20065 20064 20067     5 
20066 20064 20067     5 
20064 20067 20068     5 
20064 20067 20069     5 
20064 20067 20070     5 
20068 20067 20069     5 
20068 20067 20070     5 
20069 20067 20070     5 
20067 20070 20071     5 
20067 20070 20072     5 
20067 20070 20073     5 
20071 20070 20072     5 
20071 20070 20073     5 
20072 20070 20073     5 
20070 20073 20074     5 
20070 20073 20075     5 
20070 20073 20076     5 
20074 20073 20075     5 
20074 20073 20076     5 
20075 20073 20076     5 
20073 20076 20077     5 
20073 20076 20078     5 
20073 20076 20079     5 
20077 20076 20078     5 
20077 20076 20079     5 
20078 20076 20079     5 
20076 20079 20080     5 
20076 20079 20081     5 
20076 20079 20082     5 
20080 20079 20081     5 
20080 20079 20082     5 
20081 20079 20082     5 
20079 20082 20083     5 
20079 20082 20084     5 
20079 20082 20085     5 
20083 20082 20084     5 
20083 20082 20085     5 
20084 20082 20085     5 
20082 20085 20086     5 
20082 20085 20087     5 
20082 20085 20088     5 
20086 20085 20087     5 
20086 20085 20088     5 
20087 20085 20088     5 
20085 20088 20089     5 
20085 20088 20090     5 
20085 20088 20091     5 
20089 20088 20090     5 
20089 20088 20091     5 
20090 20088 20091     5 
20088 20091 20092     5 
20088 20091 20093     5 
20088 20091 20094     5 
20092 20091 20093     5 
20092 20091 20094     5 
20093 20091 20094     5 
20091 20094 20095     5 
20091 20094 20096     5 
20091 20094 20097     5 
20095 20094 20096     5 
20095 20094 20097     5 
20096 20094 20097     5 
20094 20097 20098     5 
20094 20097 20099     5 
20094 20097 20100     5 
20098 20097 20099     5 
20098 20097 20100     5 
20099 20097 20100     5 
20102 20101 20105     5 
20102 20101 20109     5 
20102 20101 20113     5 
20105 20101 20109     5 
20105 20101 20113     5 
20109 20101 20113     5 
20101 20102 20103     5 
20101 20102 20104     5 
20101 20102 20117     5 
20103 20102 20104     5 
20103 20102 20117     5 
20104 20102 20117     5 
20101 20105 20106     5 
20101 20105 20107     5 
20101 20105 20108     5 
20106 20105 20107     5 
20106 20105 20108     5 
20107 20105 20108     5 
20101 20109 20110     5 
20101 20109 20111     5 
20101 20109 20112     5 
20110 20109 20111     5 
20110 20109 20112     5 
20111 20109 20112     5 
20101 20113 20114     5 
20101 20113 20115     5 
20101 20113 20116     5 
20114 20113 20115     5 
20114 20113 20116     5 
20115 20113 20116     5 
20102 20117 20118     5 
20102 20117 20119     5 
20102 20117 20123     5 
20118 20117 20119     5 
20118 20117 20123     5 
20119 20117 20123     5 
20121 20120 20122     5 
20121 20120 20123     5 
20121 20120 20124     5 
20122 20120 20123     5 
20122 20120 20124     5 
20123 20120 20124     5 
20117 20123 20120     5 
20120 20124 20125     5 
20124 20125 20126     5 
20124 20125 20127     5 
20124 20125 20128     5 
20126 20125 20127     5 
20126 20125 20128     5 
20127 20125 20128     5 
20125 20128 20129     5 
20125 20128 20130     5 
20125 20128 20136     5 
20129 20128 20130     5 
20129 20128 20136     5 
20130 20128 20136     5 
20128 20130 20131     5 
20130 20131 20132     5 
20130 20131 20133     5 
20132 20131 20133     5 
20131 20133 20134     5 
20131 20133 20135     5 
20131 20133 20145     5 
20134 20133 20135     5 
20134 20133 20145     5 
20135 20133 20145     5 
20128 20136 20137     5 
20128 20136 20138     5 
20128 20136 20139     5 
20137 20136 20138     5 
20137 20136 20139     5 
20138 20136 20139     5 
20136 20139 20140     5 
20139 20140 20141     5 
20139 20140 20142     5 
20141 20140 20142     5 
20140 20142 20143     5 
20140 20142 20144     5 
20140 20142 20192     5 
20143 20142 20144     5 
20143 20142 20192     5 
20144 20142 20192     5 
20133 20145 20146     5 
20133 20145 20147     5 
20133 20145 20148     5 
20146 20145 20147     5 
20146 20145 20148     5 
20147 20145 20148     5 
20145 20148 20149     5 
20145 20148 20150     5 
20145 20148 20151     5 
20149 20148 20150     5 
20149 20148 20151     5 
20150 20148 20151     5 
20148 20151 20152     5 
20148 20151 20153     5 
20148 20151 20154     5 
20152 20151 20153     5 
20152 20151 20154     5 
20153 20151 20154     5 
20151 20154 20155     5 
20151 20154 20156     5 
20151 20154 20157     5 
20155 20154 20156     5 
20155 20154 20157     5 
20156 20154 20157     5 
20154 20157 20158     5 
20154 20157 20159     5 
20154 20157 20160     5 
20158 20157 20159     5 
20158 20157 20160     5 
20159 20157 20160     5 
20157 20160 20161     5 
20157 20160 20162     5 
20157 20160 20163     5 
20161 20160 20162     5 
20161 20160 20163     5 
20162 20160 20163     5 
20160 20163 20164     5 
20160 20163 20165     5 
20164 20163 20165     5 
20163 20165 20166     5 
20163 20165 20167     5 
20166 20165 20167     5 
20165 20167 20168     5 
20165 20167 20169     5 
20165 20167 20170     5 
20168 20167 20169     5 
20168 20167 20170     5 
20169 20167 20170     5 
20167 20170 20171     5 
20167 20170 20172     5 
20167 20170 20173     5 
20171 20170 20172     5 
20171 20170 20173     5 
20172 20170 20173     5 
20170 20173 20174     5 
20170 20173 20175     5 
20170 20173 20176     5 
20174 20173 20175     5 
20174 20173 20176     5 
20175 20173 20176     5 
20173 20176 20177     5 
20173 20176 20178     5 
20173 20176 20179     5 
20177 20176 20178     5 
20177 20176 20179     5 
20178 20176 20179     5 
20176 20179 20180     5 
20176 20179 20181     5 
20176 20179 20182     5 
20180 20179 20181     5 
20180 20179 20182     5 
20181 20179 20182     5 
20179 20182 20183     5 
20179 20182 20184     5 
20179 20182 20185     5 
20183 20182 20184     5 
20183 20182 20185     5 
20184 20182 20185     5 
20182 20185 20186     5 
20182 20185 20187     5 
20182 20185 20188     5 
20186 20185 20187     5 
20186 20185 20188     5 
20187 20185 20188     5 
20185 20188 20189     5 
20185 20188 20190     5 
20185 20188 20191     5 
20189 20188 20190     5 
20189 20188 20191     5 
20190 20188 20191     5 
20142 20192 20193     5 
20142 20192 20194     5 
20142 20192 20195     5 
20193 20192 20194     5 
20193 20192 20195     5 
20194 20192 20195     5 
20192 20195 20196     5 
20192 20195 20197     5 
20192 20195 20198     5 
20196 20195 20197     5 
20196 20195 20198     5 
20197 20195 20198     5 
20195 20198 20199     5 
20195 20198 20200     5 
20195 20198 20201     5 
20199 20198 20200     5 
20199 20198 20201     5 
20200 20198 20201     5 
20198 20201 20202     5 
20198 20201 20203     5 
20198 20201 20204     5 
20202 20201 20203     5 
20202 20201 20204     5 
20203 20201 20204     5 
20201 20204 20205     5 
20201 20204 20206     5 
20201 20204 20207     5 
20205 20204 20206     5 
20205 20204 20207     5 
20206 20204 20207     5 
20204 20207 20208     5 
20204 20207 20209     5 
20204 20207 20210     5 
20208 20207 20209     5 
20208 20207 20210     5 
20209 20207 20210     5 
20207 20210 20211     5 
20207 20210 20212     5 
20207 20210 20213     5 
20211 20210 20212     5 
20211 20210 20213     5 
20212 20210 20213     5 
20210 20213 20214     5 
20210 20213 20215     5 
20210 20213 20216     5 
20214 20213 20215     5 
20214 20213 20216     5 
20215 20213 20216     5 
20213 20216 20217     5 
20213 20216 20218     5 
20213 20216 20219     5 
20217 20216 20218     5 
20217 20216 20219     5 
20218 20216 20219     5 
20216 20219 20220     5 
20216 20219 20221     5 
20216 20219 20222     5 
20220 20219 20221     5 
20220 20219 20222     5 
20221 20219 20222     5 
20219 20222 20223     5 
20219 20222 20224     5 
20219 20222 20225     5 
20223 20222 20224     5 
20223 20222 20225     5 
20224 20222 20225     5 
20222 20225 20226     5 
20222 20225 20227     5 
20222 20225 20228     5 
20226 20225 20227     5 
20226 20225 20228     5 
20227 20225 20228     5 
20225 20228 20229     5 
20225 20228 20230     5 
20225 20228 20231     5 
20229 20228 20230     5 
20229 20228 20231     5 
20230 20228 20231     5 
20228 20231 20232     5 
20228 20231 20233     5 
20228 20231 20234     5 
20232 20231 20233     5 
20232 20231 20234     5 
20233 20231 20234     5 
20236 20235 20239     5 
20236 20235 20243     5 
20236 20235 20247     5 
20239 20235 20243     5 
20239 20235 20247     5 
20243 20235 20247     5 
20235 20236 20237     5 
20235 20236 20238     5 
20235 20236 20251     5 
20237 20236 20238     5 
20237 20236 20251     5 
20238 20236 20251     5 
20235 20239 20240     5 
20235 20239 20241     5 
20235 20239 20242     5 
20240 20239 20241     5 
20240 20239 20242     5 
20241 20239 20242     5 
20235 20243 20244     5 
20235 20243 20245     5 
20235 20243 20246     5 
20244 20243 20245     5 
20244 20243 20246     5 
20245 20243 20246     5 
20235 20247 20248     5 
20235 20247 20249     5 
20235 20247 20250     5 
20248 20247 20249     5 
20248 20247 20250     5 
20249 20247 20250     5 
20236 20251 20252     5 
20236 20251 20253     5 
20236 20251 20257     5 
20252 20251 20253     5 
20252 20251 20257     5 
20253 20251 20257     5 
20255 20254 20256     5 
20255 20254 20257     5 
20255 20254 20258     5 
20256 20254 20257     5 
20256 20254 20258     5 
20257 20254 20258     5 
20251 20257 20254     5 
20254 20258 20259     5 
20258 20259 20260     5 
20258 20259 20261     5 
20258 20259 20262     5 
20260 20259 20261     5 
20260 20259 20262     5 
20261 20259 20262     5 
20259 20262 20263     5 
20259 20262 20264     5 
20259 20262 20270     5 
20263 20262 20264     5 
20263 20262 20270     5 
20264 20262 20270     5 
20262 20264 20265     5 
20264 20265 20266     5 
20264 20265 20267     5 
20266 20265 20267     5 
20265 20267 20268     5 
20265 20267 20269     5 
20265 20267 20279     5 
20268 20267 20269     5 
20268 20267 20279     5 
20269 20267 20279     5 
20262 20270 20271     5 
20262 20270 20272     5 
20262 20270 20273     5 
20271 20270 20272     5 
20271 20270 20273     5 
20272 20270 20273     5 
20270 20273 20274     5 
20273 20274 20275     5 
20273 20274 20276     5 
20275 20274 20276     5 
20274 20276 20277     5 
20274 20276 20278     5 
20274 20276 20326     5 
20277 20276 20278     5 
20277 20276 20326     5 
20278 20276 20326     5 
20267 20279 20280     5 
20267 20279 20281     5 
20267 20279 20282     5 
20280 20279 20281     5 
20280 20279 20282     5 
20281 20279 20282     5 
20279 20282 20283     5 
20279 20282 20284     5 
20279 20282 20285     5 
20283 20282 20284     5 
20283 20282 20285     5 
20284 20282 20285     5 
20282 20285 20286     5 
20282 20285 20287     5 
20282 20285 20288     5 
20286 20285 20287     5 
20286 20285 20288     5 
20287 20285 20288     5 
20285 20288 20289     5 
20285 20288 20290     5 
20285 20288 20291     5 
20289 20288 20290     5 
20289 20288 20291     5 
20290 20288 20291     5 
20288 20291 20292     5 
20288 20291 20293     5 
20288 20291 20294     5 
20292 20291 20293     5 
20292 20291 20294     5 
20293 20291 20294     5 
20291 20294 20295     5 
20291 20294 20296     5 
20291 20294 20297     5 
20295 20294 20296     5 
20295 20294 20297     5 
20296 20294 20297     5 
20294 20297 20298     5 
20294 20297 20299     5 
20298 20297 20299     5 
20297 20299 20300     5 
20297 20299 20301     5 
20300 20299 20301     5 
20299 20301 20302     5 
20299 20301 20303     5 
20299 20301 20304     5 
20302 20301 20303     5 
20302 20301 20304     5 
20303 20301 20304     5 
20301 20304 20305     5 
20301 20304 20306     5 
20301 20304 20307     5 
20305 20304 20306     5 
20305 20304 20307     5 
20306 20304 20307     5 
20304 20307 20308     5 
20304 20307 20309     5 
20304 20307 20310     5 
20308 20307 20309     5 
20308 20307 20310     5 
20309 20307 20310     5 
20307 20310 20311     5 
20307 20310 20312     5 
20307 20310 20313     5 
20311 20310 20312     5 
20311 20310 20313     5 
20312 20310 20313     5 
20310 20313 20314     5 
20310 20313 20315     5 
20310 20313 20316     5 
20314 20313 20315     5 
20314 20313 20316     5 
20315 20313 20316     5 
20313 20316 20317     5 
20313 20316 20318     5 
20313 20316 20319     5 
20317 20316 20318     5 
20317 20316 20319     5 
20318 20316 20319     5 
20316 20319 20320     5 
20316 20319 20321     5 
20316 20319 20322     5 
20320 20319 20321     5 
20320 20319 20322     5 
20321 20319 20322     5 
20319 20322 20323     5 
20319 20322 20324     5 
20319 20322 20325     5 
20323 20322 20324     5 
20323 20322 20325     5 
20324 20322 20325     5 
20276 20326 20327     5 
20276 20326 20328     5 
20276 20326 20329     5 
20327 20326 20328     5 
20327 20326 20329     5 
20328 20326 20329     5 
20326 20329 20330     5 
20326 20329 20331     5 
20326 20329 20332     5 
20330 20329 20331     5 
20330 20329 20332     5 
20331 20329 20332     5 
20329 20332 20333     5 
20329 20332 20334     5 
20329 20332 20335     5 
20333 20332 20334     5 
20333 20332 20335     5 
20334 20332 20335     5 
20332 20335 20336     5 
20332 20335 20337     5 
20332 20335 20338     5 
20336 20335 20337     5 
20336 20335 20338     5 
20337 20335 20338     5 
20335 20338 20339     5 
20335 20338 20340     5 
20335 20338 20341     5 
20339 20338 20340     5 
20339 20338 20341     5 
20340 20338 20341     5 
20338 20341 20342     5 
20338 20341 20343     5 
20338 20341 20344     5 
20342 20341 20343     5 
20342 20341 20344     5 
20343 20341 20344     5 
20341 20344 20345     5 
20341 20344 20346     5 
20341 20344 20347     5 
20345 20344 20346     5 
20345 20344 20347     5 
20346 20344 20347     5 
20344 20347 20348     5 
20344 20347 20349     5 
20344 20347 20350     5 
20348 20347 20349     5 
20348 20347 20350     5 
20349 20347 20350     5 
20347 20350 20351     5 
20347 20350 20352     5 
20347 20350 20353     5 
20351 20350 20352     5 
20351 20350 20353     5 
20352 20350 20353     5 
20350 20353 20354     5 
20350 20353 20355     5 
20350 20353 20356     5 
20354 20353 20355     5 
20354 20353 20356     5 
20355 20353 20356     5 
20353 20356 20357     5 
20353 20356 20358     5 
20353 20356 20359     5 
20357 20356 20358     5 
20357 20356 20359     5 
20358 20356 20359     5 
20356 20359 20360     5 
20356 20359 20361     5 
20356 20359 20362     5 
20360 20359 20361     5 
20360 20359 20362     5 
20361 20359 20362     5 
20359 20362 20363     5 
20359 20362 20364     5 
20359 20362 20365     5 
20363 20362 20364     5 
20363 20362 20365     5 
20364 20362 20365     5 
20362 20365 20366     5 
20362 20365 20367     5 
20362 20365 20368     5 
20366 20365 20367     5 
20366 20365 20368     5 
20367 20365 20368     5 
20370 20369 20373     5 
20370 20369 20377     5 
20370 20369 20381     5 
20373 20369 20377     5 
20373 20369 20381     5 
20377 20369 20381     5 
20369 20370 20371     5 
20369 20370 20372     5 
20369 20370 20385     5 
20371 20370 20372     5 
20371 20370 20385     5 
20372 20370 20385     5 
20369 20373 20374     5 
20369 20373 20375     5 
20369 20373 20376     5 
20374 20373 20375     5 
20374 20373 20376     5 
20375 20373 20376     5 
20369 20377 20378     5 
20369 20377 20379     5 
20369 20377 20380     5 
20378 20377 20379     5 
20378 20377 20380     5 
20379 20377 20380     5 
20369 20381 20382     5 
20369 20381 20383     5 
20369 20381 20384     5 
20382 20381 20383     5 
20382 20381 20384     5 
20383 20381 20384     5 
20370 20385 20386     5 
20370 20385 20387     5 
20370 20385 20391     5 
20386 20385 20387     5 
20386 20385 20391     5 
20387 20385 20391     5 
20389 20388 20390     5 
20389 20388 20391     5 
20389 20388 20392     5 
20390 20388 20391     5 
20390 20388 20392     5 
20391 20388 20392     5 
20385 20391 20388     5 
20388 20392 20393     5 
20392 20393 20394     5 
20392 20393 20395     5 
20392 20393 20396     5 
20394 20393 20395     5 
20394 20393 20396     5 
20395 20393 20396     5 
20393 20396 20397     5 
20393 20396 20398     5 
20393 20396 20404     5 
20397 20396 20398     5 
20397 20396 20404     5 
20398 20396 20404     5 
20396 20398 20399     5 
20398 20399 20400     5 
20398 20399 20401     5 
20400 20399 20401     5 
20399 20401 20402     5 
20399 20401 20403     5 
20399 20401 20413     5 
20402 20401 20403     5 
20402 20401 20413     5 
20403 20401 20413     5 
20396 20404 20405     5 
20396 20404 20406     5 
20396 20404 20407     5 
20405 20404 20406     5 
20405 20404 20407     5 
20406 20404 20407     5 
20404 20407 20408     5 
20407 20408 20409     5 
20407 20408 20410     5 
20409 20408 20410     5 
20408 20410 20411     5 
20408 20410 20412     5 
20408 20410 20460     5 
20411 20410 20412     5 
20411 20410 20460     5 
20412 20410 20460     5 
20401 20413 20414     5 
20401 20413 20415     5 
20401 20413 20416     5 
20414 20413 20415     5 
20414 20413 20416     5 
20415 20413 20416     5 
20413 20416 20417     5 
20413 20416 20418     5 
20413 20416 20419     5 
20417 20416 20418     5 
20417 20416 20419     5 
20418 20416 20419     5 
20416 20419 20420     5 
20416 20419 20421     5 
20416 20419 20422     5 
20420 20419 20421     5 
20420 20419 20422     5 
20421 20419 20422     5 
20419 20422 20423     5 
20419 20422 20424     5 
20419 20422 20425     5 
20423 20422 20424     5 
20423 20422 20425     5 
20424 20422 20425     5 
20422 20425 20426     5 
20422 20425 20427     5 
20422 20425 20428     5 
20426 20425 20427     5 
20426 20425 20428     5 
20427 20425 20428     5 
20425 20428 20429     5 
20425 20428 20430     5 
20425 20428 20431     5 
20429 20428 20430     5 
20429 20428 20431     5 
20430 20428 20431     5 
20428 20431 20432     5 
20428 20431 20433     5 
20432 20431 20433     5 
20431 20433 20434     5 
20431 20433 20435     5 
20434 20433 20435     5 
20433 20435 20436     5 
20433 20435 20437     5 
20433 20435 20438     5 
20436 20435 20437     5 
20436 20435 20438     5 
20437 20435 20438     5 
20435 20438 20439     5 
20435 20438 20440     5 
20435 20438 20441     5 
20439 20438 20440     5 
20439 20438 20441     5 
20440 20438 20441     5 
20438 20441 20442     5 
20438 20441 20443     5 
20438 20441 20444     5 
20442 20441 20443     5 
20442 20441 20444     5 
20443 20441 20444     5 
20441 20444 20445     5 
20441 20444 20446     5 
20441 20444 20447     5 
20445 20444 20446     5 
20445 20444 20447     5 
20446 20444 20447     5 
20444 20447 20448     5 
20444 20447 20449     5 
20444 20447 20450     5 
20448 20447 20449     5 
20448 20447 20450     5 
20449 20447 20450     5 
20447 20450 20451     5 
20447 20450 20452     5 
20447 20450 20453     5 
20451 20450 20452     5 
20451 20450 20453     5 
20452 20450 20453     5 
20450 20453 20454     5 
20450 20453 20455     5 
20450 20453 20456     5 
20454 20453 20455     5 
20454 20453 20456     5 
20455 20453 20456     5 
20453 20456 20457     5 
20453 20456 20458     5 
20453 20456 20459     5 
20457 20456 20458     5 
20457 20456 20459     5 
20458 20456 20459     5 
20410 20460 20461     5 
20410 20460 20462     5 
20410 20460 20463     5 
20461 20460 20462     5 
20461 20460 20463     5 
20462 20460 20463     5 
20460 20463 20464     5 
20460 20463 20465     5 
20460 20463 20466     5 
20464 20463 20465     5 
20464 20463 20466     5 
20465 20463 20466     5 
20463 20466 20467     5 
20463 20466 20468     5 
20463 20466 20469     5 
20467 20466 20468     5 
20467 20466 20469     5 
20468 20466 20469     5 
20466 20469 20470     5 
20466 20469 20471     5 
20466 20469 20472     5 
20470 20469 20471     5 
20470 20469 20472     5 
20471 20469 20472     5 
20469 20472 20473     5 
20469 20472 20474     5 
20469 20472 20475     5 
20473 20472 20474     5 
20473 20472 20475     5 
20474 20472 20475     5 
20472 20475 20476     5 
20472 20475 20477     5 
20472 20475 20478     5 
20476 20475 20477     5 
20476 20475 20478     5 
20477 20475 20478     5 
20475 20478 20479     5 
20475 20478 20480     5 
20475 20478 20481     5 
20479 20478 20480     5 
20479 20478 20481     5 
20480 20478 20481     5 
20478 20481 20482     5 
20478 20481 20483     5 
20478 20481 20484     5 
20482 20481 20483     5 
20482 20481 20484     5 
20483 20481 20484     5 
20481 20484 20485     5 
20481 20484 20486     5 
20481 20484 20487     5 
20485 20484 20486     5 
20485 20484 20487     5 
20486 20484 20487     5 
20484 20487 20488     5 
20484 20487 20489     5 
20484 20487 20490     5 
20488 20487 20489     5 
20488 20487 20490     5 
20489 20487 20490     5 
20487 20490 20491     5 
20487 20490 20492     5 
20487 20490 20493     5 
20491 20490 20492     5 
20491 20490 20493     5 
20492 20490 20493     5 
20490 20493 20494     5 
20490 20493 20495     5 
20490 20493 20496     5 
20494 20493 20495     5 
20494 20493 20496     5 
20495 20493 20496     5 
20493 20496 20497     5 
20493 20496 20498     5 
20493 20496 20499     5 
20497 20496 20498     5 
20497 20496 20499     5 
20498 20496 20499     5 
20496 20499 20500     5 
20496 20499 20501     5 
20496 20499 20502     5 
20500 20499 20501     5 
20500 20499 20502     5 
20501 20499 20502     5 
20504 20503 20507     5 
20504 20503 20511     5 
20504 20503 20515     5 
20507 20503 20511     5 
20507 20503 20515     5 
20511 20503 20515     5 
20503 20504 20505     5 
20503 20504 20506     5 
20503 20504 20519     5 
20505 20504 20506     5 
20505 20504 20519     5 
20506 20504 20519     5 
20503 20507 20508     5 
20503 20507 20509     5 
20503 20507 20510     5 
20508 20507 20509     5 
20508 20507 20510     5 
20509 20507 20510     5 
20503 20511 20512     5 
20503 20511 20513     5 
20503 20511 20514     5 
20512 20511 20513     5 
20512 20511 20514     5 
20513 20511 20514     5 
20503 20515 20516     5 
20503 20515 20517     5 
20503 20515 20518     5 
20516 20515 20517     5 
20516 20515 20518     5 
20517 20515 20518     5 
20504 20519 20520     5 
20504 20519 20521     5 
20504 20519 20525     5 
20520 20519 20521     5 
20520 20519 20525     5 
20521 20519 20525     5 
20523 20522 20524     5 
20523 20522 20525     5 
20523 20522 20526     5 
20524 20522 20525     5 
20524 20522 20526     5 
20525 20522 20526     5 
20519 20525 20522     5 
20522 20526 20527     5 
20526 20527 20528     5 
20526 20527 20529     5 
20526 20527 20530     5 
20528 20527 20529     5 
20528 20527 20530     5 
20529 20527 20530     5 
20527 20530 20531     5 
20527 20530 20532     5 
20527 20530 20538     5 
20531 20530 20532     5 
20531 20530 20538     5 
20532 20530 20538     5 
20530 20532 20533     5 
20532 20533 20534     5 
20532 20533 20535     5 
20534 20533 20535     5 
20533 20535 20536     5 
20533 20535 20537     5 
20533 20535 20547     5 
20536 20535 20537     5 
20536 20535 20547     5 
20537 20535 20547     5 
20530 20538 20539     5 
20530 20538 20540     5 
20530 20538 20541     5 
20539 20538 20540     5 
20539 20538 20541     5 
20540 20538 20541     5 
20538 20541 20542     5 
20541 20542 20543     5 
20541 20542 20544     5 
20543 20542 20544     5 
20542 20544 20545     5 
20542 20544 20546     5 
20542 20544 20594     5 
20545 20544 20546     5 
20545 20544 20594     5 
20546 20544 20594     5 
20535 20547 20548     5 
20535 20547 20549     5 
20535 20547 20550     5 
20548 20547 20549     5 
20548 20547 20550     5 
20549 20547 20550     5 
20547 20550 20551     5 
20547 20550 20552     5 
20547 20550 20553     5 
20551 20550 20552     5 
20551 20550 20553     5 
20552 20550 20553     5 
20550 20553 20554     5 
20550 20553 20555     5 
20550 20553 20556     5 
20554 20553 20555     5 
20554 20553 20556     5 
20555 20553 20556     5 
20553 20556 20557     5 
20553 20556 20558     5 
20553 20556 20559     5 
20557 20556 20558     5 
20557 20556 20559     5 
20558 20556 20559     5 
20556 20559 20560     5 
20556 20559 20561     5 
20556 20559 20562     5 
20560 20559 20561     5 
20560 20559 20562     5 
20561 20559 20562     5 
20559 20562 20563     5 
20559 20562 20564     5 
20559 20562 20565     5 
20563 20562 20564     5 
20563 20562 20565     5 
20564 20562 20565     5 
20562 20565 20566     5 
20562 20565 20567     5 
20566 20565 20567     5 
20565 20567 20568     5 
20565 20567 20569     5 
20568 20567 20569     5 
20567 20569 20570     5 
20567 20569 20571     5 
20567 20569 20572     5 
20570 20569 20571     5 
20570 20569 20572     5 
20571 20569 20572     5 
20569 20572 20573     5 
20569 20572 20574     5 
20569 20572 20575     5 
20573 20572 20574     5 
20573 20572 20575     5 
20574 20572 20575     5 
20572 20575 20576     5 
20572 20575 20577     5 
20572 20575 20578     5 
20576 20575 20577     5 
20576 20575 20578     5 
20577 20575 20578     5 
20575 20578 20579     5 
20575 20578 20580     5 
20575 20578 20581     5 
20579 20578 20580     5 
20579 20578 20581     5 
20580 20578 20581     5 
20578 20581 20582     5 
20578 20581 20583     5 
20578 20581 20584     5 
20582 20581 20583     5 
20582 20581 20584     5 
20583 20581 20584     5 
20581 20584 20585     5 
20581 20584 20586     5 
20581 20584 20587     5 
20585 20584 20586     5 
20585 20584 20587     5 
20586 20584 20587     5 
20584 20587 20588     5 
20584 20587 20589     5 
20584 20587 20590     5 
20588 20587 20589     5 
20588 20587 20590     5 
20589 20587 20590     5 
20587 20590 20591     5 
20587 20590 20592     5 
20587 20590 20593     5 
20591 20590 20592     5 
20591 20590 20593     5 
20592 20590 20593     5 
20544 20594 20595     5 
20544 20594 20596     5 
20544 20594 20597     5 
20595 20594 20596     5 
20595 20594 20597     5 
20596 20594 20597     5 
20594 20597 20598     5 
20594 20597 20599     5 
20594 20597 20600     5 
20598 20597 20599     5 
20598 20597 20600     5 
20599 20597 20600     5 
20597 20600 20601     5 
20597 20600 20602     5 
20597 20600 20603     5 
20601 20600 20602     5 
20601 20600 20603     5 
20602 20600 20603     5 
20600 20603 20604     5 
20600 20603 20605     5 
20600 20603 20606     5 
20604 20603 20605     5 
20604 20603 20606     5 
20605 20603 20606     5 
20603 20606 20607     5 
20603 20606 20608     5 
20603 20606 20609     5 
20607 20606 20608     5 
20607 20606 20609     5 
20608 20606 20609     5 
20606 20609 20610     5 
20606 20609 20611     5 
20606 20609 20612     5 
20610 20609 20611     5 
20610 20609 20612     5 
20611 20609 20612     5 
20609 20612 20613     5 
20609 20612 20614     5 
20609 20612 20615     5 
20613 20612 20614     5 
20613 20612 20615     5 
20614 20612 20615     5 
20612 20615 20616     5 
20612 20615 20617     5 
20612 20615 20618     5 
20616 20615 20617     5 
20616 20615 20618     5 
20617 20615 20618     5 
20615 20618 20619     5 
20615 20618 20620     5 
20615 20618 20621     5 
20619 20618 20620     5 
20619 20618 20621     5 
20620 20618 20621     5 
20618 20621 20622     5 
20618 20621 20623     5 
20618 20621 20624     5 
20622 20621 20623     5 
20622 20621 20624     5 
20623 20621 20624     5 
20621 20624 20625     5 
20621 20624 20626     5 
20621 20624 20627     5 
20625 20624 20626     5 
20625 20624 20627     5 
20626 20624 20627     5 
20624 20627 20628     5 
20624 20627 20629     5 
20624 20627 20630     5 
20628 20627 20629     5 
20628 20627 20630     5 
20629 20627 20630     5 
20627 20630 20631     5 
20627 20630 20632     5 
20627 20630 20633     5 
20631 20630 20632     5 
20631 20630 20633     5 
20632 20630 20633     5 
20630 20633 20634     5 
20630 20633 20635     5 
20630 20633 20636     5 
20634 20633 20635     5 
20634 20633 20636     5 
20635 20633 20636     5 
20638 20637 20641     5 
20638 20637 20645     5 
20638 20637 20649     5 
20641 20637 20645     5 
20641 20637 20649     5 
20645 20637 20649     5 
20637 20638 20639     5 
20637 20638 20640     5 
20637 20638 20653     5 
20639 20638 20640     5 
20639 20638 20653     5 
20640 20638 20653     5 
20637 20641 20642     5 
20637 20641 20643     5 
20637 20641 20644     5 
20642 20641 20643     5 
20642 20641 20644     5 
20643 20641 20644     5 
20637 20645 20646     5 
20637 20645 20647     5 
20637 20645 20648     5 
20646 20645 20647     5 
20646 20645 20648     5 
20647 20645 20648     5 
20637 20649 20650     5 
20637 20649 20651     5 
20637 20649 20652     5 
20650 20649 20651     5 
20650 20649 20652     5 
20651 20649 20652     5 
20638 20653 20654     5 
20638 20653 20655     5 
20638 20653 20659     5 
20654 20653 20655     5 
20654 20653 20659     5 
20655 20653 20659     5 
20657 20656 20658     5 
20657 20656 20659     5 
20657 20656 20660     5 
20658 20656 20659     5 
20658 20656 20660     5 
20659 20656 20660     5 
20653 20659 20656     5 
20656 20660 20661     5 
20660 20661 20662     5 
20660 20661 20663     5 
20660 20661 20664     5 
20662 20661 20663     5 
20662 20661 20664     5 
20663 20661 20664     5 
20661 20664 20665     5 
20661 20664 20666     5 
20661 20664 20672     5 
20665 20664 20666     5 
20665 20664 20672     5 
20666 20664 20672     5 
20664 20666 20667     5 
20666 20667 20668     5 
20666 20667 20669     5 
20668 20667 20669     5 
20667 20669 20670     5 
20667 20669 20671     5 
20667 20669 20681     5 
20670 20669 20671     5 
20670 20669 20681     5 
20671 20669 20681     5 
20664 20672 20673     5 
20664 20672 20674     5 
20664 20672 20675     5 
20673 20672 20674     5 
20673 20672 20675     5 
20674 20672 20675     5 
20672 20675 20676     5 
20675 20676 20677     5 
20675 20676 20678     5 
20677 20676 20678     5 
20676 20678 20679     5 
20676 20678 20680     5 
20676 20678 20728     5 
20679 20678 20680     5 
20679 20678 20728     5 
20680 20678 20728     5 
20669 20681 20682     5 
20669 20681 20683     5 
20669 20681 20684     5 
20682 20681 20683     5 
20682 20681 20684     5 
20683 20681 20684     5 
20681 20684 20685     5 
20681 20684 20686     5 
20681 20684 20687     5 
20685 20684 20686     5 
20685 20684 20687     5 
20686 20684 20687     5 
20684 20687 20688     5 
20684 20687 20689     5 
20684 20687 20690     5 
20688 20687 20689     5 
20688 20687 20690     5 
20689 20687 20690     5 
20687 20690 20691     5 
20687 20690 20692     5 
20687 20690 20693     5 
20691 20690 20692     5 
20691 20690 20693     5 
20692 20690 20693     5 
20690 20693 20694     5 
20690 20693 20695     5 
20690 20693 20696     5 
20694 20693 20695     5 
20694 20693 20696     5 
20695 20693 20696     5 
20693 20696 20697     5 
20693 20696 20698     5 
20693 20696 20699     5 
20697 20696 20698     5 
20697 20696 20699     5 
20698 20696 20699     5 
20696 20699 20700     5 
20696 20699 20701     5 
20700 20699 20701     5 
20699 20701 20702     5 
20699 20701 20703     5 
20702 20701 20703     5 
20701 20703 20704     5 
20701 20703 20705     5 
20701 20703 20706     5 
20704 20703 20705     5 
20704 20703 20706     5 
20705 20703 20706     5 
20703 20706 20707     5 
20703 20706 20708     5 
20703 20706 20709     5 
20707 20706 20708     5 
20707 20706 20709     5 
20708 20706 20709     5 
20706 20709 20710     5 
20706 20709 20711     5 
20706 20709 20712     5 
20710 20709 20711     5 
20710 20709 20712     5 
20711 20709 20712     5 
20709 20712 20713     5 
20709 20712 20714     5 
20709 20712 20715     5 
20713 20712 20714     5 
20713 20712 20715     5 
20714 20712 20715     5 
20712 20715 20716     5 
20712 20715 20717     5 
20712 20715 20718     5 
20716 20715 20717     5 
20716 20715 20718     5 
20717 20715 20718     5 
20715 20718 20719     5 
20715 20718 20720     5 
20715 20718 20721     5 
20719 20718 20720     5 
20719 20718 20721     5 
20720 20718 20721     5 
20718 20721 20722     5 
20718 20721 20723     5 
20718 20721 20724     5 
20722 20721 20723     5 
20722 20721 20724     5 
20723 20721 20724     5 
20721 20724 20725     5 
20721 20724 20726     5 
20721 20724 20727     5 
20725 20724 20726     5 
20725 20724 20727     5 
20726 20724 20727     5 
20678 20728 20729     5 
20678 20728 20730     5 
20678 20728 20731     5 
20729 20728 20730     5 
20729 20728 20731     5 
20730 20728 20731     5 
20728 20731 20732     5 
20728 20731 20733     5 
20728 20731 20734     5 
20732 20731 20733     5 
20732 20731 20734     5 
20733 20731 20734     5 
20731 20734 20735     5 
20731 20734 20736     5 
20731 20734 20737     5 
20735 20734 20736     5 
20735 20734 20737     5 
20736 20734 20737     5 
20734 20737 20738     5 
20734 20737 20739     5 
20734 20737 20740     5 
20738 20737 20739     5 
20738 20737 20740     5 
20739 20737 20740     5 
20737 20740 20741     5 
20737 20740 20742     5 
20737 20740 20743     5 
20741 20740 20742     5 
20741 20740 20743     5 
20742 20740 20743     5 
20740 20743 20744     5 
20740 20743 20745     5 
20740 20743 20746     5 
20744 20743 20745     5 
20744 20743 20746     5 
20745 20743 20746     5 
20743 20746 20747     5 
20743 20746 20748     5 
20743 20746 20749     5 
20747 20746 20748     5 
20747 20746 20749     5 
20748 20746 20749     5 
20746 20749 20750     5 
20746 20749 20751     5 
20746 20749 20752     5 
20750 20749 20751     5 
20750 20749 20752     5 
20751 20749 20752     5 
20749 20752 20753     5 
20749 20752 20754     5 
20749 20752 20755     5 
20753 20752 20754     5 
20753 20752 20755     5 
20754 20752 20755     5 
20752 20755 20756     5 
20752 20755 20757     5 
20752 20755 20758     5 
20756 20755 20757     5 
20756 20755 20758     5 
20757 20755 20758     5 
20755 20758 20759     5 
20755 20758 20760     5 
20755 20758 20761     5 
20759 20758 20760     5 
20759 20758 20761     5 
20760 20758 20761     5 
20758 20761 20762     5 
20758 20761 20763     5 
20758 20761 20764     5 
20762 20761 20763     5 
20762 20761 20764     5 
20763 20761 20764     5 
20761 20764 20765     5 
20761 20764 20766     5 
20761 20764 20767     5 
20765 20764 20766     5 
20765 20764 20767     5 
20766 20764 20767     5 
20764 20767 20768     5 
20764 20767 20769     5 
20764 20767 20770     5 
20768 20767 20769     5 
20768 20767 20770     5 
20769 20767 20770     5 
20772 20771 20775     5 
20772 20771 20779     5 
20772 20771 20783     5 
20775 20771 20779     5 
20775 20771 20783     5 
20779 20771 20783     5 
20771 20772 20773     5 
20771 20772 20774     5 
20771 20772 20787     5 
20773 20772 20774     5 
20773 20772 20787     5 
20774 20772 20787     5 
20771 20775 20776     5 
20771 20775 20777     5 
20771 20775 20778     5 
20776 20775 20777     5 
20776 20775 20778     5 
20777 20775 20778     5 
20771 20779 20780     5 
20771 20779 20781     5 
20771 20779 20782     5 
20780 20779 20781     5 
20780 20779 20782     5 
20781 20779 20782     5 
20771 20783 20784     5 
20771 20783 20785     5 
20771 20783 20786     5 
20784 20783 20785     5 
20784 20783 20786     5 
20785 20783 20786     5 
20772 20787 20788     5 
20772 20787 20789     5 
20772 20787 20793     5 
20788 20787 20789     5 
20788 20787 20793     5 
20789 20787 20793     5 
20791 20790 20792     5 
20791 20790 20793     5 
20791 20790 20794     5 
20792 20790 20793     5 
20792 20790 20794     5 
20793 20790 20794     5 
20787 20793 20790     5 
20790 20794 20795     5 
20794 20795 20796     5 
20794 20795 20797     5 
20794 20795 20798     5 
20796 20795 20797     5 
20796 20795 20798     5 
20797 20795 20798     5 
20795 20798 20799     5 
20795 20798 20800     5 
20795 20798 20806     5 
20799 20798 20800     5 
20799 20798 20806     5 
20800 20798 20806     5 
20798 20800 20801     5 
20800 20801 20802     5 
20800 20801 20803     5 
20802 20801 20803     5 
20801 20803 20804     5 
20801 20803 20805     5 
20801 20803 20815     5 
20804 20803 20805     5 
20804 20803 20815     5 
20805 20803 20815     5 
20798 20806 20807     5 
20798 20806 20808     5 
20798 20806 20809     5 
20807 20806 20808     5 
20807 20806 20809     5 
20808 20806 20809     5 
20806 20809 20810     5 
20809 20810 20811     5 
20809 20810 20812     5 
20811 20810 20812     5 
20810 20812 20813     5 
20810 20812 20814     5 
20810 20812 20862     5 
20813 20812 20814     5 
20813 20812 20862     5 
20814 20812 20862     5 
20803 20815 20816     5 
20803 20815 20817     5 
20803 20815 20818     5 
20816 20815 20817     5 
20816 20815 20818     5 
20817 20815 20818     5 
20815 20818 20819     5 
20815 20818 20820     5 
20815 20818 20821     5 
20819 20818 20820     5 
20819 20818 20821     5 
20820 20818 20821     5 
20818 20821 20822     5 
20818 20821 20823     5 
20818 20821 20824     5 
20822 20821 20823     5 
20822 20821 20824     5 
20823 20821 20824     5 
20821 20824 20825     5 
20821 20824 20826     5 
20821 20824 20827     5 
20825 20824 20826     5 
20825 20824 20827     5 
20826 20824 20827     5 
20824 20827 20828     5 
20824 20827 20829     5 
20824 20827 20830     5 
20828 20827 20829     5 
20828 20827 20830     5 
20829 20827 20830     5 
20827 20830 20831     5 
20827 20830 20832     5 
20827 20830 20833     5 
20831 20830 20832     5 
20831 20830 20833     5 
20832 20830 20833     5 
20830 20833 20834     5 
20830 20833 20835     5 
20834 20833 20835     5 
20833 20835 20836     5 
20833 20835 20837     5 
20836 20835 20837     5 
20835 20837 20838     5 
20835 20837 20839     5 
20835 20837 20840     5 
20838 20837 20839     5 
20838 20837 20840     5 
20839 20837 20840     5 
20837 20840 20841     5 
20837 20840 20842     5 
20837 20840 20843     5 
20841 20840 20842     5 
20841 20840 20843     5 
20842 20840 20843     5 
20840 20843 20844     5 
20840 20843 20845     5 
20840 20843 20846     5 
20844 20843 20845     5 
20844 20843 20846     5 
20845 20843 20846     5 
20843 20846 20847     5 
20843 20846 20848     5 
20843 20846 20849     5 
20847 20846 20848     5 
20847 20846 20849     5 
20848 20846 20849     5 
20846 20849 20850     5 
20846 20849 20851     5 
20846 20849 20852     5 
20850 20849 20851     5 
20850 20849 20852     5 
20851 20849 20852     5 
20849 20852 20853     5 
20849 20852 20854     5 
20849 20852 20855     5 
20853 20852 20854     5 
20853 20852 20855     5 
20854 20852 20855     5 
20852 20855 20856     5 
20852 20855 20857     5 
20852 20855 20858     5 
20856 20855 20857     5 
20856 20855 20858     5 
20857 20855 20858     5 
20855 20858 20859     5 
20855 20858 20860     5 
20855 20858 20861     5 
20859 20858 20860     5 
20859 20858 20861     5 
20860 20858 20861     5 
20812 20862 20863     5 
20812 20862 20864     5 
20812 20862 20865     5 
20863 20862 20864     5 
20863 20862 20865     5 
20864 20862 20865     5 
20862 20865 20866     5 
20862 20865 20867     5 
20862 20865 20868     5 
20866 20865 20867     5 
20866 20865 20868     5 
20867 20865 20868     5 
20865 20868 20869     5 
20865 20868 20870     5 
20865 20868 20871     5 
20869 20868 20870     5 
20869 20868 20871     5 
20870 20868 20871     5 
20868 20871 20872     5 
20868 20871 20873     5 
20868 20871 20874     5 
20872 20871 20873     5 
20872 20871 20874     5 
20873 20871 20874     5 
20871 20874 20875     5 
20871 20874 20876     5 
20871 20874 20877     5 
20875 20874 20876     5 
20875 20874 20877     5 
20876 20874 20877     5 
20874 20877 20878     5 
20874 20877 20879     5 
20874 20877 20880     5 
20878 20877 20879     5 
20878 20877 20880     5 
20879 20877 20880     5 
20877 20880 20881     5 
20877 20880 20882     5 
20877 20880 20883     5 
20881 20880 20882     5 
20881 20880 20883     5 
20882 20880 20883     5 
20880 20883 20884     5 
20880 20883 20885     5 
20880 20883 20886     5 
20884 20883 20885     5 
20884 20883 20886     5 
20885 20883 20886     5 
20883 20886 20887     5 
20883 20886 20888     5 
20883 20886 20889     5 
20887 20886 20888     5 
20887 20886 20889     5 
20888 20886 20889     5 
20886 20889 20890     5 
20886 20889 20891     5 
20886 20889 20892     5 
20890 20889 20891     5 
20890 20889 20892     5 
20891 20889 20892     5 
20889 20892 20893     5 
20889 20892 20894     5 
20889 20892 20895     5 
20893 20892 20894     5 
20893 20892 20895     5 
20894 20892 20895     5 
20892 20895 20896     5 
20892 20895 20897     5 
20892 20895 20898     5 
20896 20895 20897     5 
20896 20895 20898     5 
20897 20895 20898     5 
20895 20898 20899     5 
20895 20898 20900     5 
20895 20898 20901     5 
20899 20898 20900     5 
20899 20898 20901     5 
20900 20898 20901     5 
20898 20901 20902     5 
20898 20901 20903     5 
20898 20901 20904     5 
20902 20901 20903     5 
20902 20901 20904     5 
20903 20901 20904     5 
20906 20905 20909     5 
20906 20905 20913     5 
20906 20905 20917     5 
20909 20905 20913     5 
20909 20905 20917     5 
20913 20905 20917     5 
20905 20906 20907     5 
20905 20906 20908     5 
20905 20906 20921     5 
20907 20906 20908     5 
20907 20906 20921     5 
20908 20906 20921     5 
20905 20909 20910     5 
20905 20909 20911     5 
20905 20909 20912     5 
20910 20909 20911     5 
20910 20909 20912     5 
20911 20909 20912     5 
20905 20913 20914     5 
20905 20913 20915     5 
20905 20913 20916     5 
20914 20913 20915     5 
20914 20913 20916     5 
20915 20913 20916     5 
20905 20917 20918     5 
20905 20917 20919     5 
20905 20917 20920     5 
20918 20917 20919     5 
20918 20917 20920     5 
20919 20917 20920     5 
20906 20921 20922     5 
20906 20921 20923     5 
20906 20921 20927     5 
20922 20921 20923     5 
20922 20921 20927     5 
20923 20921 20927     5 
20925 20924 20926     5 
20925 20924 20927     5 
20925 20924 20928     5 
20926 20924 20927     5 
20926 20924 20928     5 
20927 20924 20928     5 
20921 20927 20924     5 
20924 20928 20929     5 
20928 20929 20930     5 
20928 20929 20931     5 
20928 20929 20932     5 
20930 20929 20931     5 
20930 20929 20932     5 
20931 20929 20932     5 
20929 20932 20933     5 
20929 20932 20934     5 
20929 20932 20940     5 
20933 20932 20934     5 
20933 20932 20940     5 
20934 20932 20940     5 
20932 20934 20935     5 
20934 20935 20936     5 
20934 20935 20937     5 
20936 20935 20937     5 
20935 20937 20938     5 
20935 20937 20939     5 
20935 20937 20949     5 
20938 20937 20939     5 
20938 20937 20949     5 
20939 20937 20949     5 
20932 20940 20941     5 
20932 20940 20942     5 
20932 20940 20943     5 
20941 20940 20942     5 
20941 20940 20943     5 
20942 20940 20943     5 
20940 20943 20944     5 
20943 20944 20945     5 
20943 20944 20946     5 
20945 20944 20946     5 
20944 20946 20947     5 
20944 20946 20948     5 
20944 20946 20996     5 
20947 20946 20948     5 
20947 20946 20996     5 
20948 20946 20996     5 
20937 20949 20950     5 
20937 20949 20951     5 
20937 20949 20952     5 
20950 20949 20951     5 
20950 20949 20952     5 
20951 20949 20952     5 
20949 20952 20953     5 
20949 20952 20954     5 
20949 20952 20955     5 
20953 20952 20954     5 
20953 20952 20955     5 
20954 20952 20955     5 
20952 20955 20956     5 
20952 20955 20957     5 
20952 20955 20958     5 
20956 20955 20957     5 
20956 20955 20958     5 
20957 20955 20958     5 
20955 20958 20959     5 
20955 20958 20960     5 
20955 20958 20961     5 
20959 20958 20960     5 
20959 20958 20961     5 
20960 20958 20961     5 
20958 20961 20962     5 
20958 20961 20963     5 
20958 20961 20964     5 
20962 20961 20963     5 
20962 20961 20964     5 
20963 20961 20964     5 
20961 20964 20965     5 
20961 20964 20966     5 
20961 20964 20967     5 
20965 20964 20966     5 
20965 20964 20967     5 
20966 20964 20967     5 
20964 20967 20968     5 
20964 20967 20969     5 
20968 20967 20969     5 
20967 20969 20970     5 
20967 20969 20971     5 
20970 20969 20971     5 
20969 20971 20972     5 
20969 20971 20973     5 
20969 20971 20974     5 
20972 20971 20973     5 
20972 20971 20974     5 
20973 20971 20974     5 
20971 20974 20975     5 
20971 20974 20976     5 
20971 20974 20977     5 
20975 20974 20976     5 
20975 20974 20977     5 
20976 20974 20977     5 
20974 20977 20978     5 
20974 20977 20979     5 
20974 20977 20980     5 
20978 20977 20979     5 
20978 20977 20980     5 
20979 20977 20980     5 
20977 20980 20981     5 
20977 20980 20982     5 
20977 20980 20983     5 
20981 20980 20982     5 
20981 20980 20983     5 
20982 20980 20983     5 
20980 20983 20984     5 
20980 20983 20985     5 
20980 20983 20986     5 
20984 20983 20985     5 
20984 20983 20986     5 
20985 20983 20986     5 
20983 20986 20987     5 
20983 20986 20988     5 
20983 20986 20989     5 
20987 20986 20988     5 
20987 20986 20989     5 
20988 20986 20989     5 
20986 20989 20990     5 
20986 20989 20991     5 
20986 20989 20992     5 
20990 20989 20991     5 
20990 20989 20992     5 
20991 20989 20992     5 
20989 20992 20993     5 
20989 20992 20994     5 
20989 20992 20995     5 
20993 20992 20994     5 
20993 20992 20995     5 
20994 20992 20995     5 
20946 20996 20997     5 
20946 20996 20998     5 
20946 20996 20999     5 
20997 20996 20998     5 
20997 20996 20999     5 
20998 20996 20999     5 
20996 20999 21000     5 
20996 20999 21001     5 
20996 20999 21002     5 
21000 20999 21001     5 
21000 20999 21002     5 
21001 20999 21002     5 
20999 21002 21003     5 
20999 21002 21004     5 
20999 21002 21005     5 
21003 21002 21004     5 
21003 21002 21005     5 
21004 21002 21005     5 
21002 21005 21006     5 
21002 21005 21007     5 
21002 21005 21008     5 
21006 21005 21007     5 
21006 21005 21008     5 
21007 21005 21008     5 
21005 21008 21009     5 
21005 21008 21010     5 
21005 21008 21011     5 
21009 21008 21010     5 
21009 21008 21011     5 
21010 21008 21011     5 
21008 21011 21012     5 
21008 21011 21013     5 
21008 21011 21014     5 
21012 21011 21013     5 
21012 21011 21014     5 
21013 21011 21014     5 
21011 21014 21015     5 
21011 21014 21016     5 
21011 21014 21017     5 
21015 21014 21016     5 
21015 21014 21017     5 
21016 21014 21017     5 
21014 21017 21018     5 
21014 21017 21019     5 
21014 21017 21020     5 
21018 21017 21019     5 
21018 21017 21020     5 
21019 21017 21020     5 
21017 21020 21021     5 
21017 21020 21022     5 
21017 21020 21023     5 
21021 21020 21022     5 
21021 21020 21023     5 
21022 21020 21023     5 
21020 21023 21024     5 
21020 21023 21025     5 
21020 21023 21026     5 
21024 21023 21025     5 
21024 21023 21026     5 
21025 21023 21026     5 
21023 21026 21027     5 
21023 21026 21028     5 
21023 21026 21029     5 
21027 21026 21028     5 
21027 21026 21029     5 
21028 21026 21029     5 
21026 21029 21030     5 
21026 21029 21031     5 
21026 21029 21032     5 
21030 21029 21031     5 
21030 21029 21032     5 
21031 21029 21032     5 
21029 21032 21033     5 
21029 21032 21034     5 
21029 21032 21035     5 
21033 21032 21034     5 
21033 21032 21035     5 
21034 21032 21035     5 
21032 21035 21036     5 
21032 21035 21037     5 
21032 21035 21038     5 
21036 21035 21037     5 
21036 21035 21038     5 
21037 21035 21038     5 
21040 21039 21043     5 
21040 21039 21047     5 
21040 21039 21051     5 
21043 21039 21047     5 
21043 21039 21051     5 
21047 21039 21051     5 
21039 21040 21041     5 
21039 21040 21042     5 
21039 21040 21055     5 
21041 21040 21042     5 
21041 21040 21055     5 
21042 21040 21055     5 
21039 21043 21044     5 
21039 21043 21045     5 
21039 21043 21046     5 
21044 21043 21045     5 
21044 21043 21046     5 
21045 21043 21046     5 
21039 21047 21048     5 
21039 21047 21049     5 
21039 21047 21050     5 
21048 21047 21049     5 
21048 21047 21050     5 
21049 21047 21050     5 
21039 21051 21052     5 
21039 21051 21053     5 
21039 21051 21054     5 
21052 21051 21053     5 
21052 21051 21054     5 
21053 21051 21054     5 
21040 21055 21056     5 
21040 21055 21057     5 
21040 21055 21061     5 
21056 21055 21057     5 
21056 21055 21061     5 
21057 21055 21061     5 
21059 21058 21060     5 
21059 21058 21061     5 
21059 21058 21062     5 
21060 21058 21061     5 
21060 21058 21062     5 
21061 21058 21062     5 
21055 21061 21058     5 
21058 21062 21063     5 
21062 21063 21064     5 
21062 21063 21065     5 
21062 21063 21066     5 
21064 21063 21065     5 
21064 21063 21066     5 
21065 21063 21066     5 
21063 21066 21067     5 
21063 21066 21068     5 
21063 21066 21074     5 
21067 21066 21068     5 
21067 21066 21074     5 
21068 21066 21074     5 
21066 21068 21069     5 
21068 21069 21070     5 
21068 21069 21071     5 
21070 21069 21071     5 
21069 21071 21072     5 
21069 21071 21073     5 
21069 21071 21083     5 
21072 21071 21073     5 
21072 21071 21083     5 
21073 21071 21083     5 
21066 21074 21075     5 
21066 21074 21076     5 
21066 21074 21077     5 
21075 21074 21076     5 
21075 21074 21077     5 
21076 21074 21077     5 
21074 21077 21078     5 
21077 21078 21079     5 
21077 21078 21080     5 
21079 21078 21080     5 
21078 21080 21081     5 
21078 21080 21082     5 
21078 21080 21130     5 
21081 21080 21082     5 
21081 21080 21130     5 
21082 21080 21130     5 
21071 21083 21084     5 
21071 21083 21085     5 
21071 21083 21086     5 
21084 21083 21085     5 
21084 21083 21086     5 
21085 21083 21086     5 
21083 21086 21087     5 
21083 21086 21088     5 
21083 21086 21089     5 
21087 21086 21088     5 
21087 21086 21089     5 
21088 21086 21089     5 
21086 21089 21090     5 
21086 21089 21091     5 
21086 21089 21092     5 
21090 21089 21091     5 
21090 21089 21092     5 
21091 21089 21092     5 
21089 21092 21093     5 
21089 21092 21094     5 
21089 21092 21095     5 
21093 21092 21094     5 
21093 21092 21095     5 
21094 21092 21095     5 
21092 21095 21096     5 
21092 21095 21097     5 
21092 21095 21098     5 
21096 21095 21097     5 
21096 21095 21098     5 
21097 21095 21098     5 
21095 21098 21099     5 
21095 21098 21100     5 
21095 21098 21101     5 
21099 21098 21100     5 
21099 21098 21101     5 
21100 21098 21101     5 
21098 21101 21102     5 
21098 21101 21103     5 
21102 21101 21103     5 
21101 21103 21104     5 
21101 21103 21105     5 
21104 21103 21105     5 
21103 21105 21106     5 
21103 21105 21107     5 
21103 21105 21108     5 
21106 21105 21107     5 
21106 21105 21108     5 
21107 21105 21108     5 
21105 21108 21109     5 
21105 21108 21110     5 
21105 21108 21111     5 
21109 21108 21110     5 
21109 21108 21111     5 
21110 21108 21111     5 
21108 21111 21112     5 
21108 21111 21113     5 
21108 21111 21114     5 
21112 21111 21113     5 
21112 21111 21114     5 
21113 21111 21114     5 
21111 21114 21115     5 
21111 21114 21116     5 
21111 21114 21117     5 
21115 21114 21116     5 
21115 21114 21117     5 
21116 21114 21117     5 
21114 21117 21118     5 
21114 21117 21119     5 
21114 21117 21120     5 
21118 21117 21119     5 
21118 21117 21120     5 
21119 21117 21120     5 
21117 21120 21121     5 
21117 21120 21122     5 
21117 21120 21123     5 
21121 21120 21122     5 
21121 21120 21123     5 
21122 21120 21123     5 
21120 21123 21124     5 
21120 21123 21125     5 
21120 21123 21126     5 
21124 21123 21125     5 
21124 21123 21126     5 
21125 21123 21126     5 
21123 21126 21127     5 
21123 21126 21128     5 
21123 21126 21129     5 
21127 21126 21128     5 
21127 21126 21129     5 
21128 21126 21129     5 
21080 21130 21131     5 
21080 21130 21132     5 
21080 21130 21133     5 
21131 21130 21132     5 
21131 21130 21133     5 
21132 21130 21133     5 
21130 21133 21134     5 
21130 21133 21135     5 
21130 21133 21136     5 
21134 21133 21135     5 
21134 21133 21136     5 
21135 21133 21136     5 
21133 21136 21137     5 
21133 21136 21138     5 
21133 21136 21139     5 
21137 21136 21138     5 
21137 21136 21139     5 
21138 21136 21139     5 
21136 21139 21140     5 
21136 21139 21141     5 
21136 21139 21142     5 
21140 21139 21141     5 
21140 21139 21142     5 
21141 21139 21142     5 
21139 21142 21143     5 
21139 21142 21144     5 
21139 21142 21145     5 
21143 21142 21144     5 
21143 21142 21145     5 
21144 21142 21145     5 
21142 21145 21146     5 
21142 21145 21147     5 
21142 21145 21148     5 
21146 21145 21147     5 
21146 21145 21148     5 
21147 21145 21148     5 
21145 21148 21149     5 
21145 21148 21150     5 
21145 21148 21151     5 
21149 21148 21150     5 
21149 21148 21151     5 
21150 21148 21151     5 
21148 21151 21152     5 
21148 21151 21153     5 
21148 21151 21154     5 
21152 21151 21153     5 
21152 21151 21154     5 
21153 21151 21154     5 
21151 21154 21155     5 
21151 21154 21156     5 
21151 21154 21157     5 
21155 21154 21156     5 
21155 21154 21157     5 
21156 21154 21157     5 
21154 21157 21158     5 
21154 21157 21159     5 
21154 21157 21160     5 
21158 21157 21159     5 
21158 21157 21160     5 
21159 21157 21160     5 
21157 21160 21161     5 
21157 21160 21162     5 
21157 21160 21163     5 
21161 21160 21162     5 
21161 21160 21163     5 
21162 21160 21163     5 
21160 21163 21164     5 
21160 21163 21165     5 
21160 21163 21166     5 
21164 21163 21165     5 
21164 21163 21166     5 
21165 21163 21166     5 
21163 21166 21167     5 
21163 21166 21168     5 
21163 21166 21169     5 
21167 21166 21168     5 
21167 21166 21169     5 
21168 21166 21169     5 
21166 21169 21170     5 
21166 21169 21171     5 
21166 21169 21172     5 
21170 21169 21171     5 
21170 21169 21172     5 
21171 21169 21172     5 
21174 21173 21177     5 
21174 21173 21181     5 
21174 21173 21185     5 
21177 21173 21181     5 
21177 21173 21185     5 
21181 21173 21185     5 
21173 21174 21175     5 
21173 21174 21176     5 
21173 21174 21189     5 
21175 21174 21176     5 
21175 21174 21189     5 
21176 21174 21189     5 
21173 21177 21178     5 
21173 21177 21179     5 
21173 21177 21180     5 
21178 21177 21179     5 
21178 21177 21180     5 
21179 21177 21180     5 
21173 21181 21182     5 
21173 21181 21183     5 
21173 21181 21184     5 
21182 21181 21183     5 
21182 21181 21184     5 
21183 21181 21184     5 
21173 21185 21186     5 
21173 21185 21187     5 
21173 21185 21188     5 
21186 21185 21187     5 
21186 21185 21188     5 
21187 21185 21188     5 
21174 21189 21190     5 
21174 21189 21191     5 
21174 21189 21195     5 
21190 21189 21191     5 
21190 21189 21195     5 
21191 21189 21195     5 
21193 21192 21194     5 
21193 21192 21195     5 
21193 21192 21196     5 
21194 21192 21195     5 
21194 21192 21196     5 
21195 21192 21196     5 
21189 21195 21192     5 
21192 21196 21197     5 
21196 21197 21198     5 
21196 21197 21199     5 
21196 21197 21200     5 
21198 21197 21199     5 
21198 21197 21200     5 
21199 21197 21200     5 
21197 21200 21201     5 
21197 21200 21202     5 
21197 21200 21208     5 
21201 21200 21202     5 
21201 21200 21208     5 
21202 21200 21208     5 
21200 21202 21203     5 
21202 21203 21204     5 
21202 21203 21205     5 
21204 21203 21205     5 
21203 21205 21206     5 
21203 21205 21207     5 
21203 21205 21217     5 
21206 21205 21207     5 
21206 21205 21217     5 
21207 21205 21217     5 
21200 21208 21209     5 
21200 21208 21210     5 
21200 21208 21211     5 
21209 21208 21210     5 
21209 21208 21211     5 
21210 21208 21211     5 
21208 21211 21212     5 
21211 21212 21213     5 
21211 21212 21214     5 
21213 21212 21214     5 
21212 21214 21215     5 
21212 21214 21216     5 
21212 21214 21264     5 
21215 21214 21216     5 
21215 21214 21264     5 
21216 21214 21264     5 
21205 21217 21218     5 
21205 21217 21219     5 
21205 21217 21220     5 
21218 21217 21219     5 
21218 21217 21220     5 
21219 21217 21220     5 
21217 21220 21221     5 
21217 21220 21222     5 
21217 21220 21223     5 
21221 21220 21222     5 
21221 21220 21223     5 
21222 21220 21223     5 
21220 21223 21224     5 
21220 21223 21225     5 
21220 21223 21226     5 
21224 21223 21225     5 
21224 21223 21226     5 
21225 21223 21226     5 
21223 21226 21227     5 
21223 21226 21228     5 
21223 21226 21229     5 
21227 21226 21228     5 
21227 21226 21229     5 
21228 21226 21229     5 
21226 21229 21230     5 
21226 21229 21231     5 
21226 21229 21232     5 
21230 21229 21231     5 
21230 21229 21232     5 
21231 21229 21232     5 
21229 21232 21233     5 
21229 21232 21234     5 
21229 21232 21235     5 
21233 21232 21234     5 
21233 21232 21235     5 
21234 21232 21235     5 
21232 21235 21236     5 
21232 21235 21237     5 
21236 21235 21237     5 
21235 21237 21238     5 
21235 21237 21239     5 
21238 21237 21239     5 
21237 21239 21240     5 
21237 21239 21241     5 
21237 21239 21242     5 
21240 21239 21241     5 
21240 21239 21242     5 
21241 21239 21242     5 
21239 21242 21243     5 
21239 21242 21244     5 
21239 21242 21245     5 
21243 21242 21244     5 
21243 21242 21245     5 
21244 21242 21245     5 
21242 21245 21246     5 
21242 21245 21247     5 
21242 21245 21248     5 
21246 21245 21247     5 
21246 21245 21248     5 
21247 21245 21248     5 
21245 21248 21249     5 
21245 21248 21250     5 
21245 21248 21251     5 
21249 21248 21250     5 
21249 21248 21251     5 
21250 21248 21251     5 
21248 21251 21252     5 
21248 21251 21253     5 
21248 21251 21254     5 
21252 21251 21253     5 
21252 21251 21254     5 
21253 21251 21254     5 
21251 21254 21255     5 
21251 21254 21256     5 
21251 21254 21257     5 
21255 21254 21256     5 
21255 21254 21257     5 
21256 21254 21257     5 
21254 21257 21258     5 
21254 21257 21259     5 
21254 21257 21260     5 
21258 21257 21259     5 
21258 21257 21260     5 
21259 21257 21260     5 
21257 21260 21261     5 
21257 21260 21262     5 
21257 21260 21263     5 
21261 21260 21262     5 
21261 21260 21263     5 
21262 21260 21263     5 
21214 21264 21265     5 
21214 21264 21266     5 
21214 21264 21267     5 
21265 21264 21266     5 
21265 21264 21267     5 
21266 21264 21267     5 
21264 21267 21268     5 
21264 21267 21269     5 
21264 21267 21270     5 
21268 21267 21269     5 
21268 21267 21270     5 
21269 21267 21270     5 
21267 21270 21271     5 
21267 21270 21272     5 
21267 21270 21273     5 
21271 21270 21272     5 
21271 21270 21273     5 
21272 21270 21273     5 
21270 21273 21274     5 
21270 21273 21275     5 
21270 21273 21276     5 
21274 21273 21275     5 
21274 21273 21276     5 
21275 21273 21276     5 
21273 21276 21277     5 
21273 21276 21278     5 
21273 21276 21279     5 
21277 21276 21278     5 
21277 21276 21279     5 
21278 21276 21279     5 
21276 21279 21280     5 
21276 21279 21281     5 
21276 21279 21282     5 
21280 21279 21281     5 
21280 21279 21282     5 
21281 21279 21282     5 
21279 21282 21283     5 
21279 21282 21284     5 
21279 21282 21285     5 
21283 21282 21284     5 
21283 21282 21285     5 
21284 21282 21285     5 
21282 21285 21286     5 
21282 21285 21287     5 
21282 21285 21288     5 
21286 21285 21287     5 
21286 21285 21288     5 
21287 21285 21288     5 
21285 21288 21289     5 
21285 21288 21290     5 
21285 21288 21291     5 
21289 21288 21290     5 
21289 21288 21291     5 
21290 21288 21291     5 
21288 21291 21292     5 
21288 21291 21293     5 
21288 21291 21294     5 
21292 21291 21293     5 
21292 21291 21294     5 
21293 21291 21294     5 
21291 21294 21295     5 
21291 21294 21296     5 
21291 21294 21297     5 
21295 21294 21296     5 
21295 21294 21297     5 
21296 21294 21297     5 
21294 21297 21298     5 
21294 21297 21299     5 
21294 21297 21300     5 
21298 21297 21299     5 
21298 21297 21300     5 
21299 21297 21300     5 
21297 21300 21301     5 
21297 21300 21302     5 
21297 21300 21303     5 
21301 21300 21302     5 
21301 21300 21303     5 
21302 21300 21303     5 
21300 21303 21304     5 
21300 21303 21305     5 
21300 21303 21306     5 
21304 21303 21305     5 
21304 21303 21306     5 
21305 21303 21306     5 
21308 21307 21311     5 
21308 21307 21315     5 
21308 21307 21319     5 
21311 21307 21315     5 
21311 21307 21319     5 
21315 21307 21319     5 
21307 21308 21309     5 
21307 21308 21310     5 
21307 21308 21323     5 
21309 21308 21310     5 
21309 21308 21323     5 
21310 21308 21323     5 
21307 21311 21312     5 
21307 21311 21313     5 
21307 21311 21314     5 
21312 21311 21313     5 
21312 21311 21314     5 
21313 21311 21314     5 
21307 21315 21316     5 
21307 21315 21317     5 
21307 21315 21318     5 
21316 21315 21317     5 
21316 21315 21318     5 
21317 21315 21318     5 
21307 21319 21320     5 
21307 21319 21321     5 
21307 21319 21322     5 
21320 21319 21321     5 
21320 21319 21322     5 
21321 21319 21322     5 
21308 21323 21324     5 
21308 21323 21325     5 
21308 21323 21329     5 
21324 21323 21325     5 
21324 21323 21329     5 
21325 21323 21329     5 
21327 21326 21328     5 
21327 21326 21329     5 
21327 21326 21330     5 
21328 21326 21329     5 
21328 21326 21330     5 
21329 21326 21330     5 
21323 21329 21326     5 
21326 21330 21331     5 
21330 21331 21332     5 
21330 21331 21333     5 
21330 21331 21334     5 
21332 21331 21333     5 
21332 21331 21334     5 
21333 21331 21334     5 
21331 21334 21335     5 
21331 21334 21336     5 
21331 21334 21342     5 
21335 21334 21336     5 
21335 21334 21342     5 
21336 21334 21342     5 
21334 21336 21337     5 
21336 21337 21338     5 
21336 21337 21339     5 
21338 21337 21339     5 
21337 21339 21340     5 
21337 21339 21341     5 
21337 21339 21351     5 
21340 21339 21341     5 
21340 21339 21351     5 
21341 21339 21351     5 
21334 21342 21343     5 
21334 21342 21344     5 
21334 21342 21345     5 
21343 21342 21344     5 
21343 21342 21345     5 
21344 21342 21345     5 
21342 21345 21346     5 
21345 21346 21347     5 
21345 21346 21348     5 
21347 21346 21348     5 
21346 21348 21349     5 
21346 21348 21350     5 
21346 21348 21398     5 
21349 21348 21350     5 
21349 21348 21398     5 
21350 21348 21398     5 
21339 21351 21352     5 
21339 21351 21353     5 
21339 21351 21354     5 
21352 21351 21353     5 
21352 21351 21354     5 
21353 21351 21354     5 
21351 21354 21355     5 
21351 21354 21356     5 
21351 21354 21357     5 
21355 21354 21356     5 
21355 21354 21357     5 
21356 21354 21357     5 
21354 21357 21358     5 
21354 21357 21359     5 
21354 21357 21360     5 
21358 21357 21359     5 
21358 21357 21360     5 
21359 21357 21360     5 
21357 21360 21361     5 
21357 21360 21362     5 
21357 21360 21363     5 
21361 21360 21362     5 
21361 21360 21363     5 
21362 21360 21363     5 
21360 21363 21364     5 
21360 21363 21365     5 
21360 21363 21366     5 
21364 21363 21365     5 
21364 21363 21366     5 
21365 21363 21366     5 
21363 21366 21367     5 
21363 21366 21368     5 
21363 21366 21369     5 
21367 21366 21368     5 
21367 21366 21369     5 
21368 21366 21369     5 
21366 21369 21370     5 
21366 21369 21371     5 
21370 21369 21371     5 
21369 21371 21372     5 
21369 21371 21373     5 
21372 21371 21373     5 
21371 21373 21374     5 
21371 21373 21375     5 
21371 21373 21376     5 
21374 21373 21375     5 
21374 21373 21376     5 
21375 21373 21376     5 
21373 21376 21377     5 
21373 21376 21378     5 
21373 21376 21379     5 
21377 21376 21378     5 
21377 21376 21379     5 
21378 21376 21379     5 
21376 21379 21380     5 
21376 21379 21381     5 
21376 21379 21382     5 
21380 21379 21381     5 
21380 21379 21382     5 
21381 21379 21382     5 
21379 21382 21383     5 
21379 21382 21384     5 
21379 21382 21385     5 
21383 21382 21384     5 
21383 21382 21385     5 
21384 21382 21385     5 
21382 21385 21386     5 
21382 21385 21387     5 
21382 21385 21388     5 
21386 21385 21387     5 
21386 21385 21388     5 
21387 21385 21388     5 
21385 21388 21389     5 
21385 21388 21390     5 
21385 21388 21391     5 
21389 21388 21390     5 
21389 21388 21391     5 
21390 21388 21391     5 
21388 21391 21392     5 
21388 21391 21393     5 
21388 21391 21394     5 
21392 21391 21393     5 
21392 21391 21394     5 
21393 21391 21394     5 
21391 21394 21395     5 
21391 21394 21396     5 
21391 21394 21397     5 
21395 21394 21396     5 
21395 21394 21397     5 
21396 21394 21397     5 
21348 21398 21399     5 
21348 21398 21400     5 
21348 21398 21401     5 
21399 21398 21400     5 
21399 21398 21401     5 
21400 21398 21401     5 
21398 21401 21402     5 
21398 21401 21403     5 
21398 21401 21404     5 
21402 21401 21403     5 
21402 21401 21404     5 
21403 21401 21404     5 
21401 21404 21405     5 
21401 21404 21406     5 
21401 21404 21407     5 
21405 21404 21406     5 
21405 21404 21407     5 
21406 21404 21407     5 
21404 21407 21408     5 
21404 21407 21409     5 
21404 21407 21410     5 
21408 21407 21409     5 
21408 21407 21410     5 
21409 21407 21410     5 
21407 21410 21411     5 
21407 21410 21412     5 
21407 21410 21413     5 
21411 21410 21412     5 
21411 21410 21413     5 
21412 21410 21413     5 
21410 21413 21414     5 
21410 21413 21415     5 
21410 21413 21416     5 
21414 21413 21415     5 
21414 21413 21416     5 
21415 21413 21416     5 
21413 21416 21417     5 
21413 21416 21418     5 
21413 21416 21419     5 
21417 21416 21418     5 
21417 21416 21419     5 
21418 21416 21419     5 
21416 21419 21420     5 
21416 21419 21421     5 
21416 21419 21422     5 
21420 21419 21421     5 
21420 21419 21422     5 
21421 21419 21422     5 
21419 21422 21423     5 
21419 21422 21424     5 
21419 21422 21425     5 
21423 21422 21424     5 
21423 21422 21425     5 
21424 21422 21425     5 
21422 21425 21426     5 
21422 21425 21427     5 
21422 21425 21428     5 
21426 21425 21427     5 
21426 21425 21428     5 
21427 21425 21428     5 
21425 21428 21429     5 
21425 21428 21430     5 
21425 21428 21431     5 
21429 21428 21430     5 
21429 21428 21431     5 
21430 21428 21431     5 
21428 21431 21432     5 
21428 21431 21433     5 
21428 21431 21434     5 
21432 21431 21433     5 
21432 21431 21434     5 
21433 21431 21434     5 
21431 21434 21435     5 
21431 21434 21436     5 
21431 21434 21437     5 
21435 21434 21436     5 
21435 21434 21437     5 
21436 21434 21437     5 
21434 21437 21438     5 
21434 21437 21439     5 
21434 21437 21440     5 
21438 21437 21439     5 
21438 21437 21440     5 
21439 21437 21440     5 
21442 21441 21445     5 
21442 21441 21449     5 
21442 21441 21453     5 
21445 21441 21449     5 
21445 21441 21453     5 
21449 21441 21453     5 
21441 21442 21443     5 
21441 21442 21444     5 
21441 21442 21457     5 
21443 21442 21444     5 
21443 21442 21457     5 
21444 21442 21457     5 
21441 21445 21446     5 
21441 21445 21447     5 
21441 21445 21448     5 
21446 21445 21447     5 
21446 21445 21448     5 
21447 21445 21448     5 
21441 21449 21450     5 
21441 21449 21451     5 
21441 21449 21452     5 
21450 21449 21451     5 
21450 21449 21452     5 
21451 21449 21452     5 
21441 21453 21454     5 
21441 21453 21455     5 
21441 21453 21456     5 
21454 21453 21455     5 
21454 21453 21456     5 
21455 21453 21456     5 
21442 21457 21458     5 
21442 21457 21459     5 
21442 21457 21463     5 
21458 21457 21459     5 
21458 21457 21463     5 
21459 21457 21463     5 
21461 21460 21462     5 
21461 21460 21463     5 
21461 21460 21464     5 
21462 21460 21463     5 
21462 21460 21464     5 
21463 21460 21464     5 
21457 21463 21460     5 
21460 21464 21465     5 
21464 21465 21466     5 
21464 21465 21467     5 
21464 21465 21468     5 
21466 21465 21467     5 
21466 21465 21468     5 
21467 21465 21468     5 
21465 21468 21469     5 
21465 21468 21470     5 
21465 21468 21476     5 
21469 21468 21470     5 
21469 21468 21476     5 
21470 21468 21476     5 
21468 21470 21471     5 
21470 21471 21472     5 
21470 21471 21473     5 
21472 21471 21473     5 
21471 21473 21474     5 
21471 21473 21475     5 
21471 21473 21485     5 
21474 21473 21475     5 
21474 21473 21485     5 
21475 21473 21485     5 
21468 21476 21477     5 
21468 21476 21478     5 
21468 21476 21479     5 
21477 21476 21478     5 
21477 21476 21479     5 
21478 21476 21479     5 
21476 21479 21480     5 
21479 21480 21481     5 
21479 21480 21482     5 
21481 21480 21482     5 
21480 21482 21483     5 
21480 21482 21484     5 
21480 21482 21532     5 
21483 21482 21484     5 
21483 21482 21532     5 
21484 21482 21532     5 
21473 21485 21486     5 
21473 21485 21487     5 
21473 21485 21488     5 
21486 21485 21487     5 
21486 21485 21488     5 
21487 21485 21488     5 
21485 21488 21489     5 
21485 21488 21490     5 
21485 21488 21491     5 
21489 21488 21490     5 
21489 21488 21491     5 
21490 21488 21491     5 
21488 21491 21492     5 
21488 21491 21493     5 
21488 21491 21494     5 
21492 21491 21493     5 
21492 21491 21494     5 
21493 21491 21494     5 
21491 21494 21495     5 
21491 21494 21496     5 
21491 21494 21497     5 
21495 21494 21496     5 
21495 21494 21497     5 
21496 21494 21497     5 
21494 21497 21498     5 
21494 21497 21499     5 
21494 21497 21500     5 
21498 21497 21499     5 
21498 21497 21500     5 
21499 21497 21500     5 
21497 21500 21501     5 
21497 21500 21502     5 
21497 21500 21503     5 
21501 21500 21502     5 
21501 21500 21503     5 
21502 21500 21503     5 
21500 21503 21504     5 
21500 21503 21505     5 
21504 21503 21505     5 
21503 21505 21506     5 
21503 21505 21507     5 
21506 21505 21507     5 
21505 21507 21508     5 
21505 21507 21509     5 
21505 21507 21510     5 
21508 21507 21509     5 
21508 21507 21510     5 
21509 21507 21510     5 
21507 21510 21511     5 
21507 21510 21512     5 
21507 21510 21513     5 
21511 21510 21512     5 
21511 21510 21513     5 
21512 21510 21513     5 
21510 21513 21514     5 
21510 21513 21515     5 
21510 21513 21516     5 
21514 21513 21515     5 
21514 21513 21516     5 
21515 21513 21516     5 
21513 21516 21517     5 
21513 21516 21518     5 
21513 21516 21519     5 
21517 21516 21518     5 
21517 21516 21519     5 
21518 21516 21519     5 
21516 21519 21520     5 
21516 21519 21521     5 
21516 21519 21522     5 
21520 21519 21521     5 
21520 21519 21522     5 
21521 21519 21522     5 
21519 21522 21523     5 
21519 21522 21524     5 
21519 21522 21525     5 
21523 21522 21524     5 
21523 21522 21525     5 
21524 21522 21525     5 
21522 21525 21526     5 
21522 21525 21527     5 
21522 21525 21528     5 
21526 21525 21527     5 
21526 21525 21528     5 
21527 21525 21528     5 
21525 21528 21529     5 
21525 21528 21530     5 
21525 21528 21531     5 
21529 21528 21530     5 
21529 21528 21531     5 
21530 21528 21531     5 
21482 21532 21533     5 
21482 21532 21534     5 
21482 21532 21535     5 
21533 21532 21534     5 
21533 21532 21535     5 
21534 21532 21535     5 
21532 21535 21536     5 
21532 21535 21537     5 
21532 21535 21538     5 
21536 21535 21537     5 
21536 21535 21538     5 
21537 21535 21538     5 
21535 21538 21539     5 
21535 21538 21540     5 
21535 21538 21541     5 
21539 21538 21540     5 
21539 21538 21541     5 
21540 21538 21541     5 
21538 21541 21542     5 
21538 21541 21543     5 
21538 21541 21544     5 
21542 21541 21543     5 
21542 21541 21544     5 
21543 21541 21544     5 
21541 21544 21545     5 
21541 21544 21546     5 
21541 21544 21547     5 
21545 21544 21546     5 
21545 21544 21547     5 
21546 21544 21547     5 
21544 21547 21548     5 
21544 21547 21549     5 
21544 21547 21550     5 
21548 21547 21549     5 
21548 21547 21550     5 
21549 21547 21550     5 
21547 21550 21551     5 
21547 21550 21552     5 
21547 21550 21553     5 
21551 21550 21552     5 
21551 21550 21553     5 
21552 21550 21553     5 
21550 21553 21554     5 
21550 21553 21555     5 
21550 21553 21556     5 
21554 21553 21555     5 
21554 21553 21556     5 
21555 21553 21556     5 
21553 21556 21557     5 
21553 21556 21558     5 
21553 21556 21559     5 
21557 21556 21558     5 
21557 21556 21559     5 
21558 21556 21559     5 
21556 21559 21560     5 
21556 21559 21561     5 
21556 21559 21562     5 
21560 21559 21561     5 
21560 21559 21562     5 
21561 21559 21562     5 
21559 21562 21563     5 
21559 21562 21564     5 
21559 21562 21565     5 
21563 21562 21564     5 
21563 21562 21565     5 
21564 21562 21565     5 
21562 21565 21566     5 
21562 21565 21567     5 
21562 21565 21568     5 
21566 21565 21567     5 
21566 21565 21568     5 
21567 21565 21568     5 
21565 21568 21569     5 
21565 21568 21570     5 
21565 21568 21571     5 
21569 21568 21570     5 
21569 21568 21571     5 
21570 21568 21571     5 
21568 21571 21572     5 
21568 21571 21573     5 
21568 21571 21574     5 
21572 21571 21573     5 
21572 21571 21574     5 
21573 21571 21574     5 
21576 21575 21579     5 
21576 21575 21583     5 
21576 21575 21587     5 
21579 21575 21583     5 
21579 21575 21587     5 
21583 21575 21587     5 
21575 21576 21577     5 
21575 21576 21578     5 
21575 21576 21591     5 
21577 21576 21578     5 
21577 21576 21591     5 
21578 21576 21591     5 
21575 21579 21580     5 
21575 21579 21581     5 
21575 21579 21582     5 
21580 21579 21581     5 
21580 21579 21582     5 
21581 21579 21582     5 
21575 21583 21584     5 
21575 21583 21585     5 
21575 21583 21586     5 
21584 21583 21585     5 
21584 21583 21586     5 
21585 21583 21586     5 
21575 21587 21588     5 
21575 21587 21589     5 
21575 21587 21590     5 
21588 21587 21589     5 
21588 21587 21590     5 
21589 21587 21590     5 
21576 21591 21592     5 
21576 21591 21593     5 
21576 21591 21597     5 
21592 21591 21593     5 
21592 21591 21597     5 
21593 21591 21597     5 
21595 21594 21596     5 
21595 21594 21597     5 
21595 21594 21598     5 
21596 21594 21597     5 
21596 21594 21598     5 
21597 21594 21598     5 
21591 21597 21594     5 
21594 21598 21599     5 
21598 21599 21600     5 
21598 21599 21601     5 
21598 21599 21602     5 
21600 21599 21601     5 
21600 21599 21602     5 
21601 21599 21602     5 
21599 21602 21603     5 
21599 21602 21604     5 
21599 21602 21610     5 
21603 21602 21604     5 
21603 21602 21610     5 
21604 21602 21610     5 
21602 21604 21605     5 
21604 21605 21606     5 
21604 21605 21607     5 
21606 21605 21607     5 
21605 21607 21608     5 
21605 21607 21609     5 
21605 21607 21619     5 
21608 21607 21609     5 
21608 21607 21619     5 
21609 21607 21619     5 
21602 21610 21611     5 
21602 21610 21612     5 
21602 21610 21613     5 
21611 21610 21612     5 
21611 21610 21613     5 
21612 21610 21613     5 
21610 21613 21614     5 
21613 21614 21615     5 
21613 21614 21616     5 
21615 21614 21616     5 
21614 21616 21617     5 
21614 21616 21618     5 
21614 21616 21666     5 
21617 21616 21618     5 
21617 21616 21666     5 
21618 21616 21666     5 
21607 21619 21620     5 
21607 21619 21621     5 
21607 21619 21622     5 
21620 21619 21621     5 
21620 21619 21622     5 
21621 21619 21622     5 
21619 21622 21623     5 
21619 21622 21624     5 
21619 21622 21625     5 
21623 21622 21624     5 
21623 21622 21625     5 
21624 21622 21625     5 
21622 21625 21626     5 
21622 21625 21627     5 
21622 21625 21628     5 
21626 21625 21627     5 
21626 21625 21628     5 
21627 21625 21628     5 
21625 21628 21629     5 
21625 21628 21630     5 
21625 21628 21631     5 
21629 21628 21630     5 
21629 21628 21631     5 
21630 21628 21631     5 
21628 21631 21632     5 
21628 21631 21633     5 
21628 21631 21634     5 
21632 21631 21633     5 
21632 21631 21634     5 
21633 21631 21634     5 
21631 21634 21635     5 
21631 21634 21636     5 
21631 21634 21637     5 
21635 21634 21636     5 
21635 21634 21637     5 
21636 21634 21637     5 
21634 21637 21638     5 
21634 21637 21639     5 
21638 21637 21639     5 
21637 21639 21640     5 
21637 21639 21641     5 
21640 21639 21641     5 
21639 21641 21642     5 
21639 21641 21643     5 
21639 21641 21644     5 
21642 21641 21643     5 
21642 21641 21644     5 
21643 21641 21644     5 
21641 21644 21645     5 
21641 21644 21646     5 
21641 21644 21647     5 
21645 21644 21646     5 
21645 21644 21647     5 
21646 21644 21647     5 
21644 21647 21648     5 
21644 21647 21649     5 
21644 21647 21650     5 
21648 21647 21649     5 
21648 21647 21650     5 
21649 21647 21650     5 
21647 21650 21651     5 
21647 21650 21652     5 
21647 21650 21653     5 
21651 21650 21652     5 
21651 21650 21653     5 
21652 21650 21653     5 
21650 21653 21654     5 
21650 21653 21655     5 
21650 21653 21656     5 
21654 21653 21655     5 
21654 21653 21656     5 
21655 21653 21656     5 
21653 21656 21657     5 
21653 21656 21658     5 
21653 21656 21659     5 
21657 21656 21658     5 
21657 21656 21659     5 
21658 21656 21659     5 
21656 21659 21660     5 
21656 21659 21661     5 
21656 21659 21662     5 
21660 21659 21661     5 
21660 21659 21662     5 
21661 21659 21662     5 
21659 21662 21663     5 
21659 21662 21664     5 
21659 21662 21665     5 
21663 21662 21664     5 
21663 21662 21665     5 
21664 21662 21665     5 
21616 21666 21667     5 
21616 21666 21668     5 
21616 21666 21669     5 
21667 21666 21668     5 
21667 21666 21669     5 
21668 21666 21669     5 
21666 21669 21670     5 
21666 21669 21671     5 
21666 21669 21672     5 
21670 21669 21671     5 
21670 21669 21672     5 
21671 21669 21672     5 
21669 21672 21673     5 
21669 21672 21674     5 
21669 21672 21675     5 
21673 21672 21674     5 
21673 21672 21675     5 
21674 21672 21675     5 
21672 21675 21676     5 
21672 21675 21677     5 
21672 21675 21678     5 
21676 21675 21677     5 
21676 21675 21678     5 
21677 21675 21678     5 
21675 21678 21679     5 
21675 21678 21680     5 
21675 21678 21681     5 
21679 21678 21680     5 
21679 21678 21681     5 
21680 21678 21681     5 
21678 21681 21682     5 
21678 21681 21683     5 
21678 21681 21684     5 
21682 21681 21683     5 
21682 21681 21684     5 
21683 21681 21684     5 
21681 21684 21685     5 
21681 21684 21686     5 
21681 21684 21687     5 
21685 21684 21686     5 
21685 21684 21687     5 
21686 21684 21687     5 
21684 21687 21688     5 
21684 21687 21689     5 
21684 21687 21690     5 
21688 21687 21689     5 
21688 21687 21690     5 
21689 21687 21690     5 
21687 21690 21691     5 
21687 21690 21692     5 
21687 21690 21693     5 
21691 21690 21692     5 
21691 21690 21693     5 
21692 21690 21693     5 
21690 21693 21694     5 
21690 21693 21695     5 
21690 21693 21696     5 
21694 21693 21695     5 
21694 21693 21696     5 
21695 21693 21696     5 
21693 21696 21697     5 
21693 21696 21698     5 
21693 21696 21699     5 
21697 21696 21698     5 
21697 21696 21699     5 
21698 21696 21699     5 
21696 21699 21700     5 
21696 21699 21701     5 
21696 21699 21702     5 
21700 21699 21701     5 
21700 21699 21702     5 
21701 21699 21702     5 
21699 21702 21703     5 
21699 21702 21704     5 
21699 21702 21705     5 
21703 21702 21704     5 
21703 21702 21705     5 
21704 21702 21705     5 
21702 21705 21706     5 
21702 21705 21707     5 
21702 21705 21708     5 
21706 21705 21707     5 
21706 21705 21708     5 
21707 21705 21708     5 
21710 21709 21713     5 
21710 21709 21717     5 
21710 21709 21721     5 
21713 21709 21717     5 
21713 21709 21721     5 
21717 21709 21721     5 
21709 21710 21711     5 
21709 21710 21712     5 
21709 21710 21725     5 
21711 21710 21712     5 
21711 21710 21725     5 
21712 21710 21725     5 
21709 21713 21714     5 
21709 21713 21715     5 
21709 21713 21716     5 
21714 21713 21715     5 
21714 21713 21716     5 
21715 21713 21716     5 
21709 21717 21718     5 
21709 21717 21719     5 
21709 21717 21720     5 
21718 21717 21719     5 
21718 21717 21720     5 
21719 21717 21720     5 
21709 21721 21722     5 
21709 21721 21723     5 
21709 21721 21724     5 
21722 21721 21723     5 
21722 21721 21724     5 
21723 21721 21724     5 
21710 21725 21726     5 
21710 21725 21727     5 
21710 21725 21731     5 
21726 21725 21727     5 
21726 21725 21731     5 
21727 21725 21731     5 
21729 21728 21730     5 
21729 21728 21731     5 
21729 21728 21732     5 
21730 21728 21731     5 
21730 21728 21732     5 
21731 21728 21732     5 
21725 21731 21728     5 
21728 21732 21733     5 
21732 21733 21734     5 
21732 21733 21735     5 
21732 21733 21736     5 
21734 21733 21735     5 
21734 21733 21736     5 
21735 21733 21736     5 
21733 21736 21737     5 
21733 21736 21738     5 
21733 21736 21744     5 
21737 21736 21738     5 
21737 21736 21744     5 
21738 21736 21744     5 
21736 21738 21739     5 
21738 21739 21740     5 
21738 21739 21741     5 
21740 21739 21741     5 
21739 21741 21742     5 
21739 21741 21743     5 
21739 21741 21753     5 
21742 21741 21743     5 
21742 21741 21753     5 
21743 21741 21753     5 
21736 21744 21745     5 
21736 21744 21746     5 
21736 21744 21747     5 
21745 21744 21746     5 
21745 21744 21747     5 
21746 21744 21747     5 
21744 21747 21748     5 
21747 21748 21749     5 
21747 21748 21750     5 
21749 21748 21750     5 
21748 21750 21751     5 
21748 21750 21752     5 
21748 21750 21800     5 
21751 21750 21752     5 
21751 21750 21800     5 
21752 21750 21800     5 
21741 21753 21754     5 
21741 21753 21755     5 
21741 21753 21756     5 
21754 21753 21755     5 
21754 21753 21756     5 
21755 21753 21756     5 
21753 21756 21757     5 
21753 21756 21758     5 
21753 21756 21759     5 
21757 21756 21758     5 
21757 21756 21759     5 
21758 21756 21759     5 
21756 21759 21760     5 
21756 21759 21761     5 
21756 21759 21762     5 
21760 21759 21761     5 
21760 21759 21762     5 
21761 21759 21762     5 
21759 21762 21763     5 
21759 21762 21764     5 
21759 21762 21765     5 
21763 21762 21764     5 
21763 21762 21765     5 
21764 21762 21765     5 
21762 21765 21766     5 
21762 21765 21767     5 
21762 21765 21768     5 
21766 21765 21767     5 
21766 21765 21768     5 
21767 21765 21768     5 
21765 21768 21769     5 
21765 21768 21770     5 
21765 21768 21771     5 
21769 21768 21770     5 
21769 21768 21771     5 
21770 21768 21771     5 
21768 21771 21772     5 
21768 21771 21773     5 
21772 21771 21773     5 
21771 21773 21774     5 
21771 21773 21775     5 
21774 21773 21775     5 
21773 21775 21776     5 
21773 21775 21777     5 
21773 21775 21778     5 
21776 21775 21777     5 
21776 21775 21778     5 
21777 21775 21778     5 
21775 21778 21779     5 
21775 21778 21780     5 
21775 21778 21781     5 
21779 21778 21780     5 
21779 21778 21781     5 
21780 21778 21781     5 
21778 21781 21782     5 
21778 21781 21783     5 
21778 21781 21784     5 
21782 21781 21783     5 
21782 21781 21784     5 
21783 21781 21784     5 
21781 21784 21785     5 
21781 21784 21786     5 
21781 21784 21787     5 
21785 21784 21786     5 
21785 21784 21787     5 
21786 21784 21787     5 
21784 21787 21788     5 
21784 21787 21789     5 
21784 21787 21790     5 
21788 21787 21789     5 
21788 21787 21790     5 
21789 21787 21790     5 
21787 21790 21791     5 
21787 21790 21792     5 
21787 21790 21793     5 
21791 21790 21792     5 
21791 21790 21793     5 
21792 21790 21793     5 
21790 21793 21794     5 
21790 21793 21795     5 
21790 21793 21796     5 
21794 21793 21795     5 
21794 21793 21796     5 
21795 21793 21796     5 
21793 21796 21797     5 
21793 21796 21798     5 
21793 21796 21799     5 
21797 21796 21798     5 
21797 21796 21799     5 
21798 21796 21799     5 
21750 21800 21801     5 
21750 21800 21802     5 
21750 21800 21803     5 
21801 21800 21802     5 
21801 21800 21803     5 
21802 21800 21803     5 
21800 21803 21804     5 
21800 21803 21805     5 
21800 21803 21806     5 
21804 21803 21805     5 
21804 21803 21806     5 
21805 21803 21806     5 
21803 21806 21807     5 
21803 21806 21808     5 
21803 21806 21809     5 
21807 21806 21808     5 
21807 21806 21809     5 
21808 21806 21809     5 
21806 21809 21810     5 
21806 21809 21811     5 
21806 21809 21812     5 
21810 21809 21811     5 
21810 21809 21812     5 
21811 21809 21812     5 
21809 21812 21813     5 
21809 21812 21814     5 
21809 21812 21815     5 
21813 21812 21814     5 
21813 21812 21815     5 
21814 21812 21815     5 
21812 21815 21816     5 
21812 21815 21817     5 
21812 21815 21818     5 
21816 21815 21817     5 
21816 21815 21818     5 
21817 21815 21818     5 
21815 21818 21819     5 
21815 21818 21820     5 
21815 21818 21821     5 
21819 21818 21820     5 
21819 21818 21821     5 
21820 21818 21821     5 
21818 21821 21822     5 
21818 21821 21823     5 
21818 21821 21824     5 
21822 21821 21823     5 
21822 21821 21824     5 
21823 21821 21824     5 
21821 21824 21825     5 
21821 21824 21826     5 
21821 21824 21827     5 
21825 21824 21826     5 
21825 21824 21827     5 
21826 21824 21827     5 
21824 21827 21828     5 
21824 21827 21829     5 
21824 21827 21830     5 
21828 21827 21829     5 
21828 21827 21830     5 
21829 21827 21830     5 
21827 21830 21831     5 
21827 21830 21832     5 
21827 21830 21833     5 
21831 21830 21832     5 
21831 21830 21833     5 
21832 21830 21833     5 
21830 21833 21834     5 
21830 21833 21835     5 
21830 21833 21836     5 
21834 21833 21835     5 
21834 21833 21836     5 
21835 21833 21836     5 
21833 21836 21837     5 
21833 21836 21838     5 
21833 21836 21839     5 
21837 21836 21838     5 
21837 21836 21839     5 
21838 21836 21839     5 
21836 21839 21840     5 
21836 21839 21841     5 
21836 21839 21842     5 
21840 21839 21841     5 
21840 21839 21842     5 
21841 21839 21842     5 
21844 21843 21847     5 
21844 21843 21851     5 
21844 21843 21855     5 
21847 21843 21851     5 
21847 21843 21855     5 
21851 21843 21855     5 
21843 21844 21845     5 
21843 21844 21846     5 
21843 21844 21859     5 
21845 21844 21846     5 
21845 21844 21859     5 
21846 21844 21859     5 
21843 21847 21848     5 
21843 21847 21849     5 
21843 21847 21850     5 
21848 21847 21849     5 
21848 21847 21850     5 
21849 21847 21850     5 
21843 21851 21852     5 
21843 21851 21853     5 
21843 21851 21854     5 
21852 21851 21853     5 
21852 21851 21854     5 
21853 21851 21854     5 
21843 21855 21856     5 
21843 21855 21857     5 
21843 21855 21858     5 
21856 21855 21857     5 
21856 21855 21858     5 
21857 21855 21858     5 
21844 21859 21860     5 
21844 21859 21861     5 
21844 21859 21865     5 
21860 21859 21861     5 
21860 21859 21865     5 
21861 21859 21865     5 
21863 21862 21864     5 
21863 21862 21865     5 
21863 21862 21866     5 
21864 21862 21865     5 
21864 21862 21866     5 
21865 21862 21866     5 
21859 21865 21862     5 
21862 21866 21867     5 
21866 21867 21868     5 
21866 21867 21869     5 
21866 21867 21870     5 
21868 21867 21869     5 
21868 21867 21870     5 
21869 21867 21870     5 
21867 21870 21871     5 
21867 21870 21872     5 
21867 21870 21878     5 
21871 21870 21872     5 
21871 21870 21878     5 
21872 21870 21878     5 
21870 21872 21873     5 
21872 21873 21874     5 
21872 21873 21875     5 
21874 21873 21875     5 
21873 21875 21876     5 
21873 21875 21877     5 
21873 21875 21887     5 
21876 21875 21877     5 
21876 21875 21887     5 
21877 21875 21887     5 
21870 21878 21879     5 
21870 21878 21880     5 
21870 21878 21881     5 
21879 21878 21880     5 
21879 21878 21881     5 
21880 21878 21881     5 
21878 21881 21882     5 
21881 21882 21883     5 
21881 21882 21884     5 
21883 21882 21884     5 
21882 21884 21885     5 
21882 21884 21886     5 
21882 21884 21934     5 
21885 21884 21886     5 
21885 21884 21934     5 
21886 21884 21934     5 
21875 21887 21888     5 
21875 21887 21889     5 
21875 21887 21890     5 
21888 21887 21889     5 
21888 21887 21890     5 
21889 21887 21890     5 
21887 21890 21891     5 
21887 21890 21892     5 
21887 21890 21893     5 
21891 21890 21892     5 
21891 21890 21893     5 
21892 21890 21893     5 
21890 21893 21894     5 
21890 21893 21895     5 
21890 21893 21896     5 
21894 21893 21895     5 
21894 21893 21896     5 
21895 21893 21896     5 
21893 21896 21897     5 
21893 21896 21898     5 
21893 21896 21899     5 
21897 21896 21898     5 
21897 21896 21899     5 
21898 21896 21899     5 
21896 21899 21900     5 
21896 21899 21901     5 
21896 21899 21902     5 
21900 21899 21901     5 
21900 21899 21902     5 
21901 21899 21902     5 
21899 21902 21903     5 
21899 21902 21904     5 
21899 21902 21905     5 
21903 21902 21904     5 
21903 21902 21905     5 
21904 21902 21905     5 
21902 21905 21906     5 
21902 21905 21907     5 
21906 21905 21907     5 
21905 21907 21908     5 
21905 21907 21909     5 
21908 21907 21909     5 
21907 21909 21910     5 
21907 21909 21911     5 
21907 21909 21912     5 
21910 21909 21911     5 
21910 21909 21912     5 
21911 21909 21912     5 
21909 21912 21913     5 
21909 21912 21914     5 
21909 21912 21915     5 
21913 21912 21914     5 
21913 21912 21915     5 
21914 21912 21915     5 
21912 21915 21916     5 
21912 21915 21917     5 
21912 21915 21918     5 
21916 21915 21917     5 
21916 21915 21918     5 
21917 21915 21918     5 
21915 21918 21919     5 
21915 21918 21920     5 
21915 21918 21921     5 
21919 21918 21920     5 
21919 21918 21921     5 
21920 21918 21921     5 
21918 21921 21922     5 
21918 21921 21923     5 
21918 21921 21924     5 
21922 21921 21923     5 
21922 21921 21924     5 
21923 21921 21924     5 
21921 21924 21925     5 
21921 21924 21926     5 
21921 21924 21927     5 
21925 21924 21926     5 
21925 21924 21927     5 
21926 21924 21927     5 
21924 21927 21928     5 
21924 21927 21929     5 
21924 21927 21930     5 
21928 21927 21929     5 
21928 21927 21930     5 
21929 21927 21930     5 
21927 21930 21931     5 
21927 21930 21932     5 
21927 21930 21933     5 
21931 21930 21932     5 
21931 21930 21933     5 
21932 21930 21933     5 
21884 21934 21935     5 
21884 21934 21936     5 
21884 21934 21937     5 
21935 21934 21936     5 
21935 21934 21937     5 
21936 21934 21937     5 
21934 21937 21938     5 
21934 21937 21939     5 
21934 21937 21940     5 
21938 21937 21939     5 
21938 21937 21940     5 
21939 21937 21940     5 
21937 21940 21941     5 
21937 21940 21942     5 
21937 21940 21943     5 
21941 21940 21942     5 
21941 21940 21943     5 
21942 21940 21943     5 
21940 21943 21944     5 
21940 21943 21945     5 
21940 21943 21946     5 
21944 21943 21945     5 
21944 21943 21946     5 
21945 21943 21946     5 
21943 21946 21947     5 
21943 21946 21948     5 
21943 21946 21949     5 
21947 21946 21948     5 
21947 21946 21949     5 
21948 21946 21949     5 
21946 21949 21950     5 
21946 21949 21951     5 
21946 21949 21952     5 
21950 21949 21951     5 
21950 21949 21952     5 
21951 21949 21952     5 
21949 21952 21953     5 
21949 21952 21954     5 
21949 21952 21955     5 
21953 21952 21954     5 
21953 21952 21955     5 
21954 21952 21955     5 
21952 21955 21956     5 
21952 21955 21957     5 
21952 21955 21958     5 
21956 21955 21957     5 
21956 21955 21958     5 
21957 21955 21958     5 
21955 21958 21959     5 
21955 21958 21960     5 
21955 21958 21961     5 
21959 21958 21960     5 
21959 21958 21961     5 
21960 21958 21961     5 
21958 21961 21962     5 
21958 21961 21963     5 
21958 21961 21964     5 
21962 21961 21963     5 
21962 21961 21964     5 
21963 21961 21964     5 
21961 21964 21965     5 
21961 21964 21966     5 
21961 21964 21967     5 
21965 21964 21966     5 
21965 21964 21967     5 
21966 21964 21967     5 
21964 21967 21968     5 
21964 21967 21969     5 
21964 21967 21970     5 
21968 21967 21969     5 
21968 21967 21970     5 
21969 21967 21970     5 
21967 21970 21971     5 
21967 21970 21972     5 
21967 21970 21973     5 
21971 21970 21972     5 
21971 21970 21973     5 
21972 21970 21973     5 
21970 21973 21974     5 
21970 21973 21975     5 
21970 21973 21976     5 
21974 21973 21975     5 
21974 21973 21976     5 
21975 21973 21976     5 
21978 21977 21981     5 
21978 21977 21985     5 
21978 21977 21989     5 
21981 21977 21985     5 
21981 21977 21989     5 
21985 21977 21989     5 
21977 21978 21979     5 
21977 21978 21980     5 
21977 21978 21993     5 
21979 21978 21980     5 
21979 21978 21993     5 
21980 21978 21993     5 
21977 21981 21982     5 
21977 21981 21983     5 
21977 21981 21984     5 
21982 21981 21983     5 
21982 21981 21984     5 
21983 21981 21984     5 
21977 21985 21986     5 
21977 21985 21987     5 
21977 21985 21988     5 
21986 21985 21987     5 
21986 21985 21988     5 
21987 21985 21988     5 
21977 21989 21990     5 
21977 21989 21991     5 
21977 21989 21992     5 
21990 21989 21991     5 
21990 21989 21992     5 
21991 21989 21992     5 
21978 21993 21994     5 
21978 21993 21995     5 
21978 21993 21999     5 
21994 21993 21995     5 
21994 21993 21999     5 
21995 21993 21999     5 
21997 21996 21998     5 
21997 21996 21999     5 
21997 21996 22000     5 
21998 21996 21999     5 
21998 21996 22000     5 
21999 21996 22000     5 
21993 21999 21996     5 
21996 22000 22001     5 
22000 22001 22002     5 
22000 22001 22003     5 
22000 22001 22004     5 
22002 22001 22003     5 
22002 22001 22004     5 
22003 22001 22004     5 
22001 22004 22005     5 
22001 22004 22006     5 
22001 22004 22012     5 
22005 22004 22006     5 
22005 22004 22012     5 
22006 22004 22012     5 
22004 22006 22007     5 
22006 22007 22008     5 
22006 22007 22009     5 
22008 22007 22009     5 
22007 22009 22010     5 
22007 22009 22011     5 
22007 22009 22021     5 
22010 22009 22011     5 
22010 22009 22021     5 
22011 22009 22021     5 
22004 22012 22013     5 
22004 22012 22014     5 
22004 22012 22015     5 
22013 22012 22014     5 
22013 22012 22015     5 
22014 22012 22015     5 
22012 22015 22016     5 
22015 22016 22017     5 
22015 22016 22018     5 
22017 22016 22018     5 
22016 22018 22019     5 
22016 22018 22020     5 
22016 22018 22068     5 
22019 22018 22020     5 
22019 22018 22068     5 
22020 22018 22068     5 
22009 22021 22022     5 
22009 22021 22023     5 
22009 22021 22024     5 
22022 22021 22023     5 
22022 22021 22024     5 
22023 22021 22024     5 
22021 22024 22025     5 
22021 22024 22026     5 
22021 22024 22027     5 
22025 22024 22026     5 
22025 22024 22027     5 
22026 22024 22027     5 
22024 22027 22028     5 
22024 22027 22029     5 
22024 22027 22030     5 
22028 22027 22029     5 
22028 22027 22030     5 
22029 22027 22030     5 
22027 22030 22031     5 
22027 22030 22032     5 
22027 22030 22033     5 
22031 22030 22032     5 
22031 22030 22033     5 
22032 22030 22033     5 
22030 22033 22034     5 
22030 22033 22035     5 
22030 22033 22036     5 
22034 22033 22035     5 
22034 22033 22036     5 
22035 22033 22036     5 
22033 22036 22037     5 
22033 22036 22038     5 
22033 22036 22039     5 
22037 22036 22038     5 
22037 22036 22039     5 
22038 22036 22039     5 
22036 22039 22040     5 
22036 22039 22041     5 
22040 22039 22041     5 
22039 22041 22042     5 
22039 22041 22043     5 
22042 22041 22043     5 
22041 22043 22044     5 
22041 22043 22045     5 
22041 22043 22046     5 
22044 22043 22045     5 
22044 22043 22046     5 
22045 22043 22046     5 
22043 22046 22047     5 
22043 22046 22048     5 
22043 22046 22049     5 
22047 22046 22048     5 
22047 22046 22049     5 
22048 22046 22049     5 
22046 22049 22050     5 
22046 22049 22051     5 
22046 22049 22052     5 
22050 22049 22051     5 
22050 22049 22052     5 
22051 22049 22052     5 
22049 22052 22053     5 
22049 22052 22054     5 
22049 22052 22055     5 
22053 22052 22054     5 
22053 22052 22055     5 
22054 22052 22055     5 
22052 22055 22056     5 
22052 22055 22057     5 
22052 22055 22058     5 
22056 22055 22057     5 
22056 22055 22058     5 
22057 22055 22058     5 
22055 22058 22059     5 
22055 22058 22060     5 
22055 22058 22061     5 
22059 22058 22060     5 
22059 22058 22061     5 
22060 22058 22061     5 
22058 22061 22062     5 
22058 22061 22063     5 
22058 22061 22064     5 
22062 22061 22063     5 
22062 22061 22064     5 
22063 22061 22064     5 
22061 22064 22065     5 
22061 22064 22066     5 
22061 22064 22067     5 
22065 22064 22066     5 
22065 22064 22067     5 
22066 22064 22067     5 
22018 22068 22069     5 
22018 22068 22070     5 
22018 22068 22071     5 
22069 22068 22070     5 
22069 22068 22071     5 
22070 22068 22071     5 
22068 22071 22072     5 
22068 22071 22073     5 
22068 22071 22074     5 
22072 22071 22073     5 
22072 22071 22074     5 
22073 22071 22074     5 
22071 22074 22075     5 
22071 22074 22076     5 
22071 22074 22077     5 
22075 22074 22076     5 
22075 22074 22077     5 
22076 22074 22077     5 
22074 22077 22078     5 
22074 22077 22079     5 
22074 22077 22080     5 
22078 22077 22079     5 
22078 22077 22080     5 
22079 22077 22080     5 
22077 22080 22081     5 
22077 22080 22082     5 
22077 22080 22083     5 
22081 22080 22082     5 
22081 22080 22083     5 
22082 22080 22083     5 
22080 22083 22084     5 
22080 22083 22085     5 
22080 22083 22086     5 
22084 22083 22085     5 
22084 22083 22086     5 
22085 22083 22086     5 
22083 22086 22087     5 
22083 22086 22088     5 
22083 22086 22089     5 
22087 22086 22088     5 
22087 22086 22089     5 
22088 22086 22089     5 
22086 22089 22090     5 
22086 22089 22091     5 
22086 22089 22092     5 
22090 22089 22091     5 
22090 22089 22092     5 
22091 22089 22092     5 
22089 22092 22093     5 
22089 22092 22094     5 
22089 22092 22095     5 
22093 22092 22094     5 
22093 22092 22095     5 
22094 22092 22095     5 
22092 22095 22096     5 
22092 22095 22097     5 
22092 22095 22098     5 
22096 22095 22097     5 
22096 22095 22098     5 
22097 22095 22098     5 
22095 22098 22099     5 
22095 22098 22100     5 
22095 22098 22101     5 
22099 22098 22100     5 
22099 22098 22101     5 
22100 22098 22101     5 
22098 22101 22102     5 
22098 22101 22103     5 
22098 22101 22104     5 
22102 22101 22103     5 
22102 22101 22104     5 
22103 22101 22104     5 
22101 22104 22105     5 
22101 22104 22106     5 
22101 22104 22107     5 
22105 22104 22106     5 
22105 22104 22107     5 
22106 22104 22107     5 
22104 22107 22108     5 
22104 22107 22109     5 
22104 22107 22110     5 
22108 22107 22109     5 
22108 22107 22110     5 
22109 22107 22110     5 
22112 22111 22115     5 
22112 22111 22119     5 
22112 22111 22123     5 
22115 22111 22119     5 
22115 22111 22123     5 
22119 22111 22123     5 
22111 22112 22113     5 
22111 22112 22114     5 
22111 22112 22127     5 
22113 22112 22114     5 
22113 22112 22127     5 
22114 22112 22127     5 
22111 22115 22116     5 
22111 22115 22117     5 
22111 22115 22118     5 
22116 22115 22117     5 
22116 22115 22118     5 
22117 22115 22118     5 
22111 22119 22120     5 
22111 22119 22121     5 
22111 22119 22122     5 
22120 22119 22121     5 
22120 22119 22122     5 
22121 22119 22122     5 
22111 22123 22124     5 
22111 22123 22125     5 
22111 22123 22126     5 
22124 22123 22125     5 
22124 22123 22126     5 
22125 22123 22126     5 
22112 22127 22128     5 
22112 22127 22129     5 
22112 22127 22133     5 
22128 22127 22129     5 
22128 22127 22133     5 
22129 22127 22133     5 
22131 22130 22132     5 
22131 22130 22133     5 
22131 22130 22134     5 
22132 22130 22133     5 
22132 22130 22134     5 
22133 22130 22134     5 
22127 22133 22130     5 
22130 22134 22135     5 
22134 22135 22136     5 
22134 22135 22137     5 
22134 22135 22138     5 
22136 22135 22137     5 
22136 22135 22138     5 
22137 22135 22138     5 
22135 22138 22139     5 
22135 22138 22140     5 
22135 22138 22146     5 
22139 22138 22140     5 
22139 22138 22146     5 
22140 22138 22146     5 
22138 22140 22141     5 
22140 22141 22142     5 
22140 22141 22143     5 
22142 22141 22143     5 
22141 22143 22144     5 
22141 22143 22145     5 
22141 22143 22155     5 
22144 22143 22145     5 
22144 22143 22155     5 
22145 22143 22155     5 
22138 22146 22147     5 
22138 22146 22148     5 
22138 22146 22149     5 
22147 22146 22148     5 
22147 22146 22149     5 
22148 22146 22149     5 
22146 22149 22150     5 
22149 22150 22151     5 
22149 22150 22152     5 
22151 22150 22152     5 
22150 22152 22153     5 
22150 22152 22154     5 
22150 22152 22202     5 
22153 22152 22154     5 
22153 22152 22202     5 
22154 22152 22202     5 
22143 22155 22156     5 
22143 22155 22157     5 
22143 22155 22158     5 
22156 22155 22157     5 
22156 22155 22158     5 
22157 22155 22158     5 
22155 22158 22159     5 
22155 22158 22160     5 
22155 22158 22161     5 
22159 22158 22160     5 
22159 22158 22161     5 
22160 22158 22161     5 
22158 22161 22162     5 
22158 22161 22163     5 
22158 22161 22164     5 
22162 22161 22163     5 
22162 22161 22164     5 
22163 22161 22164     5 
22161 22164 22165     5 
22161 22164 22166     5 
22161 22164 22167     5 
22165 22164 22166     5 
22165 22164 22167     5 
22166 22164 22167     5 
22164 22167 22168     5 
22164 22167 22169     5 
22164 22167 22170     5 
22168 22167 22169     5 
22168 22167 22170     5 
22169 22167 22170     5 
22167 22170 22171     5 
22167 22170 22172     5 
22167 22170 22173     5 
22171 22170 22172     5 
22171 22170 22173     5 
22172 22170 22173     5 
22170 22173 22174     5 
22170 22173 22175     5 
22174 22173 22175     5 
22173 22175 22176     5 
22173 22175 22177     5 
22176 22175 22177     5 
22175 22177 22178     5 
22175 22177 22179     5 
22175 22177 22180     5 
22178 22177 22179     5 
22178 22177 22180     5 
22179 22177 22180     5 
22177 22180 22181     5 
22177 22180 22182     5 
22177 22180 22183     5 
22181 22180 22182     5 
22181 22180 22183     5 
22182 22180 22183     5 
22180 22183 22184     5 
22180 22183 22185     5 
22180 22183 22186     5 
22184 22183 22185     5 
22184 22183 22186     5 
22185 22183 22186     5 
22183 22186 22187     5 
22183 22186 22188     5 
22183 22186 22189     5 
22187 22186 22188     5 
22187 22186 22189     5 
22188 22186 22189     5 
22186 22189 22190     5 
22186 22189 22191     5 
22186 22189 22192     5 
22190 22189 22191     5 
22190 22189 22192     5 
22191 22189 22192     5 
22189 22192 22193     5 
22189 22192 22194     5 
22189 22192 22195     5 
22193 22192 22194     5 
22193 22192 22195     5 
22194 22192 22195     5 
22192 22195 22196     5 
22192 22195 22197     5 
22192 22195 22198     5 
22196 22195 22197     5 
22196 22195 22198     5 
22197 22195 22198     5 
22195 22198 22199     5 
22195 22198 22200     5 
22195 22198 22201     5 
22199 22198 22200     5 
22199 22198 22201     5 
22200 22198 22201     5 
22152 22202 22203     5 
22152 22202 22204     5 
22152 22202 22205     5 
22203 22202 22204     5 
22203 22202 22205     5 
22204 22202 22205     5 
22202 22205 22206     5 
22202 22205 22207     5 
22202 22205 22208     5 
22206 22205 22207     5 
22206 22205 22208     5 
22207 22205 22208     5 
22205 22208 22209     5 
22205 22208 22210     5 
22205 22208 22211     5 
22209 22208 22210     5 
22209 22208 22211     5 
22210 22208 22211     5 
22208 22211 22212     5 
22208 22211 22213     5 
22208 22211 22214     5 
22212 22211 22213     5 
22212 22211 22214     5 
22213 22211 22214     5 
22211 22214 22215     5 
22211 22214 22216     5 
22211 22214 22217     5 
22215 22214 22216     5 
22215 22214 22217     5 
22216 22214 22217     5 
22214 22217 22218     5 
22214 22217 22219     5 
22214 22217 22220     5 
22218 22217 22219     5 
22218 22217 22220     5 
22219 22217 22220     5 
22217 22220 22221     5 
22217 22220 22222     5 
22217 22220 22223     5 
22221 22220 22222     5 
22221 22220 22223     5 
22222 22220 22223     5 
22220 22223 22224     5 
22220 22223 22225     5 
22220 22223 22226     5 
22224 22223 22225     5 
22224 22223 22226     5 
22225 22223 22226     5 
22223 22226 22227     5 
22223 22226 22228     5 
22223 22226 22229     5 
22227 22226 22228     5 
22227 22226 22229     5 
22228 22226 22229     5 
22226 22229 22230     5 
22226 22229 22231     5 
22226 22229 22232     5 
22230 22229 22231     5 
22230 22229 22232     5 
22231 22229 22232     5 
22229 22232 22233     5 
22229 22232 22234     5 
22229 22232 22235     5 
22233 22232 22234     5 
22233 22232 22235     5 
22234 22232 22235     5 
22232 22235 22236     5 
22232 22235 22237     5 
22232 22235 22238     5 
22236 22235 22237     5 
22236 22235 22238     5 
22237 22235 22238     5 
22235 22238 22239     5 
22235 22238 22240     5 
22235 22238 22241     5 
22239 22238 22240     5 
22239 22238 22241     5 
22240 22238 22241     5 
22238 22241 22242     5 
22238 22241 22243     5 
22238 22241 22244     5 
22242 22241 22243     5 
22242 22241 22244     5 
22243 22241 22244     5 
22246 22245 22249     5 
22246 22245 22253     5 
22246 22245 22257     5 
22249 22245 22253     5 
22249 22245 22257     5 
22253 22245 22257     5 
22245 22246 22247     5 
22245 22246 22248     5 
22245 22246 22261     5 
22247 22246 22248     5 
22247 22246 22261     5 
22248 22246 22261     5 
22245 22249 22250     5 
22245 22249 22251     5 
22245 22249 22252     5 
22250 22249 22251     5 
22250 22249 22252     5 
22251 22249 22252     5 
22245 22253 22254     5 
22245 22253 22255     5 
22245 22253 22256     5 
22254 22253 22255     5 
22254 22253 22256     5 
22255 22253 22256     5 
22245 22257 22258     5 
22245 22257 22259     5 
22245 22257 22260     5 
22258 22257 22259     5 
22258 22257 22260     5 
22259 22257 22260     5 
22246 22261 22262     5 
22246 22261 22263     5 
22246 22261 22267     5 
22262 22261 22263     5 
22262 22261 22267     5 
22263 22261 22267     5 
22265 22264 22266     5 
22265 22264 22267     5 
22265 22264 22268     5 
22266 22264 22267     5 
22266 22264 22268     5 
22267 22264 22268     5 
22261 22267 22264     5 
22264 22268 22269     5 
22268 22269 22270     5 
22268 22269 22271     5 
22268 22269 22272     5 
22270 22269 22271     5 
22270 22269 22272     5 
22271 22269 22272     5 
22269 22272 22273     5 
22269 22272 22274     5 
22269 22272 22280     5 
22273 22272 22274     5 
22273 22272 22280     5 
22274 22272 22280     5 
22272 22274 22275     5 
22274 22275 22276     5 
22274 22275 22277     5 
22276 22275 22277     5 
22275 22277 22278     5 
22275 22277 22279     5 
22275 22277 22289     5 
22278 22277 22279     5 
22278 22277 22289     5 
22279 22277 22289     5 
22272 22280 22281     5 
22272 22280 22282     5 
22272 22280 22283     5 
22281 22280 22282     5 
22281 22280 22283     5 
22282 22280 22283     5 
22280 22283 22284     5 
22283 22284 22285     5 
22283 22284 22286     5 
22285 22284 22286     5 
22284 22286 22287     5 
22284 22286 22288     5 
22284 22286 22336     5 
22287 22286 22288     5 
22287 22286 22336     5 
22288 22286 22336     5 
22277 22289 22290     5 
22277 22289 22291     5 
22277 22289 22292     5 
22290 22289 22291     5 
22290 22289 22292     5 
22291 22289 22292     5 
22289 22292 22293     5 
22289 22292 22294     5 
22289 22292 22295     5 
22293 22292 22294     5 
22293 22292 22295     5 
22294 22292 22295     5 
22292 22295 22296     5 
22292 22295 22297     5 
22292 22295 22298     5 
22296 22295 22297     5 
22296 22295 22298     5 
22297 22295 22298     5 
22295 22298 22299     5 
22295 22298 22300     5 
22295 22298 22301     5 
22299 22298 22300     5 
22299 22298 22301     5 
22300 22298 22301     5 
22298 22301 22302     5 
22298 22301 22303     5 
22298 22301 22304     5 
22302 22301 22303     5 
22302 22301 22304     5 
22303 22301 22304     5 
22301 22304 22305     5 
22301 22304 22306     5 
22301 22304 22307     5 
22305 22304 22306     5 
22305 22304 22307     5 
22306 22304 22307     5 
22304 22307 22308     5 
22304 22307 22309     5 
22308 22307 22309     5 
22307 22309 22310     5 
22307 22309 22311     5 
22310 22309 22311     5 
22309 22311 22312     5 
22309 22311 22313     5 
22309 22311 22314     5 
22312 22311 22313     5 
22312 22311 22314     5 
22313 22311 22314     5 
22311 22314 22315     5 
22311 22314 22316     5 
22311 22314 22317     5 
22315 22314 22316     5 
22315 22314 22317     5 
22316 22314 22317     5 
22314 22317 22318     5 
22314 22317 22319     5 
22314 22317 22320     5 
22318 22317 22319     5 
22318 22317 22320     5 
22319 22317 22320     5 
22317 22320 22321     5 
22317 22320 22322     5 
22317 22320 22323     5 
22321 22320 22322     5 
22321 22320 22323     5 
22322 22320 22323     5 
22320 22323 22324     5 
22320 22323 22325     5 
22320 22323 22326     5 
22324 22323 22325     5 
22324 22323 22326     5 
22325 22323 22326     5 
22323 22326 22327     5 
22323 22326 22328     5 
22323 22326 22329     5 
22327 22326 22328     5 
22327 22326 22329     5 
22328 22326 22329     5 
22326 22329 22330     5 
22326 22329 22331     5 
22326 22329 22332     5 
22330 22329 22331     5 
22330 22329 22332     5 
22331 22329 22332     5 
22329 22332 22333     5 
22329 22332 22334     5 
22329 22332 22335     5 
22333 22332 22334     5 
22333 22332 22335     5 
22334 22332 22335     5 
22286 22336 22337     5 
22286 22336 22338     5 
22286 22336 22339     5 
22337 22336 22338     5 
22337 22336 22339     5 
22338 22336 22339     5 
22336 22339 22340     5 
22336 22339 22341     5 
22336 22339 22342     5 
22340 22339 22341     5 
22340 22339 22342     5 
22341 22339 22342     5 
22339 22342 22343     5 
22339 22342 22344     5 
22339 22342 22345     5 
22343 22342 22344     5 
22343 22342 22345     5 
22344 22342 22345     5 
22342 22345 22346     5 
22342 22345 22347     5 
22342 22345 22348     5 
22346 22345 22347     5 
22346 22345 22348     5 
22347 22345 22348     5 
22345 22348 22349     5 
22345 22348 22350     5 
22345 22348 22351     5 
22349 22348 22350     5 
22349 22348 22351     5 
22350 22348 22351     5 
22348 22351 22352     5 
22348 22351 22353     5 
22348 22351 22354     5 
22352 22351 22353     5 
22352 22351 22354     5 
22353 22351 22354     5 
22351 22354 22355     5 
22351 22354 22356     5 
22351 22354 22357     5 
22355 22354 22356     5 
22355 22354 22357     5 
22356 22354 22357     5 
22354 22357 22358     5 
22354 22357 22359     5 
22354 22357 22360     5 
22358 22357 22359     5 
22358 22357 22360     5 
22359 22357 22360     5 
22357 22360 22361     5 
22357 22360 22362     5 
22357 22360 22363     5 
22361 22360 22362     5 
22361 22360 22363     5 
22362 22360 22363     5 
22360 22363 22364     5 
22360 22363 22365     5 
22360 22363 22366     5 
22364 22363 22365     5 
22364 22363 22366     5 
22365 22363 22366     5 
22363 22366 22367     5 
22363 22366 22368     5 
22363 22366 22369     5 
22367 22366 22368     5 
22367 22366 22369     5 
22368 22366 22369     5 
22366 22369 22370     5 
22366 22369 22371     5 
22366 22369 22372     5 
22370 22369 22371     5 
22370 22369 22372     5 
22371 22369 22372     5 
22369 22372 22373     5 
22369 22372 22374     5 
22369 22372 22375     5 
22373 22372 22374     5 
22373 22372 22375     5 
22374 22372 22375     5 
22372 22375 22376     5 
22372 22375 22377     5 
22372 22375 22378     5 
22376 22375 22377     5 
22376 22375 22378     5 
22377 22375 22378     5 
22380 22379 22383     5 
22380 22379 22387     5 
22380 22379 22391     5 
22383 22379 22387     5 
22383 22379 22391     5 
22387 22379 22391     5 
22379 22380 22381     5 
22379 22380 22382     5 
22379 22380 22395     5 
22381 22380 22382     5 
22381 22380 22395     5 
22382 22380 22395     5 
22379 22383 22384     5 
22379 22383 22385     5 
22379 22383 22386     5 
22384 22383 22385     5 
22384 22383 22386     5 
22385 22383 22386     5 
22379 22387 22388     5 
22379 22387 22389     5 
22379 22387 22390     5 
22388 22387 22389     5 
22388 22387 22390     5 
22389 22387 22390     5 
22379 22391 22392     5 
22379 22391 22393     5 
22379 22391 22394     5 
22392 22391 22393     5 
22392 22391 22394     5 
22393 22391 22394     5 
22380 22395 22396     5 
22380 22395 22397     5 
22380 22395 22401     5 
22396 22395 22397     5 
22396 22395 22401     5 
22397 22395 22401     5 
22399 22398 22400     5 
22399 22398 22401     5 
22399 22398 22402     5 
22400 22398 22401     5 
22400 22398 22402     5 
22401 22398 22402     5 
22395 22401 22398     5 
22398 22402 22403     5 
22402 22403 22404     5 
22402 22403 22405     5 
22402 22403 22406     5 
22404 22403 22405     5 
22404 22403 22406     5 
22405 22403 22406     5 
22403 22406 22407     5 
22403 22406 22408     5 
22403 22406 22414     5 
22407 22406 22408     5 
22407 22406 22414     5 
22408 22406 22414     5 
22406 22408 22409     5 
22408 22409 22410     5 
22408 22409 22411     5 
22410 22409 22411     5 
22409 22411 22412     5 
22409 22411 22413     5 
22409 22411 22423     5 
22412 22411 22413     5 
22412 22411 22423     5 
22413 22411 22423     5 
22406 22414 22415     5 
22406 22414 22416     5 
22406 22414 22417     5 
22415 22414 22416     5 
22415 22414 22417     5 
22416 22414 22417     5 
22414 22417 22418     5 
22417 22418 22419     5 
22417 22418 22420     5 
22419 22418 22420     5 
22418 22420 22421     5 
22418 22420 22422     5 
22418 22420 22470     5 
22421 22420 22422     5 
22421 22420 22470     5 
22422 22420 22470     5 
22411 22423 22424     5 
22411 22423 22425     5 
22411 22423 22426     5 
22424 22423 22425     5 
22424 22423 22426     5 
22425 22423 22426     5 
22423 22426 22427     5 
22423 22426 22428     5 
22423 22426 22429     5 
22427 22426 22428     5 
22427 22426 22429     5 
22428 22426 22429     5 
22426 22429 22430     5 
22426 22429 22431     5 
22426 22429 22432     5 
22430 22429 22431     5 
22430 22429 22432     5 
22431 22429 22432     5 
22429 22432 22433     5 
22429 22432 22434     5 
22429 22432 22435     5 
22433 22432 22434     5 
22433 22432 22435     5 
22434 22432 22435     5 
22432 22435 22436     5 
22432 22435 22437     5 
22432 22435 22438     5 
22436 22435 22437     5 
22436 22435 22438     5 
22437 22435 22438     5 
22435 22438 22439     5 
22435 22438 22440     5 
22435 22438 22441     5 
22439 22438 22440     5 
22439 22438 22441     5 
22440 22438 22441     5 
22438 22441 22442     5 
22438 22441 22443     5 
22442 22441 22443     5 
22441 22443 22444     5 
22441 22443 22445     5 
22444 22443 22445     5 
22443 22445 22446     5 
22443 22445 22447     5 
22443 22445 22448     5 
22446 22445 22447     5 
22446 22445 22448     5 
22447 22445 22448     5 
22445 22448 22449     5 
22445 22448 22450     5 
22445 22448 22451     5 
22449 22448 22450     5 
22449 22448 22451     5 
22450 22448 22451     5 
22448 22451 22452     5 
22448 22451 22453     5 
22448 22451 22454     5 
22452 22451 22453     5 
22452 22451 22454     5 
22453 22451 22454     5 
22451 22454 22455     5 
22451 22454 22456     5 
22451 22454 22457     5 
22455 22454 22456     5 
22455 22454 22457     5 
22456 22454 22457     5 
22454 22457 22458     5 
22454 22457 22459     5 
22454 22457 22460     5 
22458 22457 22459     5 
22458 22457 22460     5 
22459 22457 22460     5 
22457 22460 22461     5 
22457 22460 22462     5 
22457 22460 22463     5 
22461 22460 22462     5 
22461 22460 22463     5 
22462 22460 22463     5 
22460 22463 22464     5 
22460 22463 22465     5 
22460 22463 22466     5 
22464 22463 22465     5 
22464 22463 22466     5 
22465 22463 22466     5 
22463 22466 22467     5 
22463 22466 22468     5 
22463 22466 22469     5 
22467 22466 22468     5 
22467 22466 22469     5 
22468 22466 22469     5 
22420 22470 22471     5 
22420 22470 22472     5 
22420 22470 22473     5 
22471 22470 22472     5 
22471 22470 22473     5 
22472 22470 22473     5 
22470 22473 22474     5 
22470 22473 22475     5 
22470 22473 22476     5 
22474 22473 22475     5 
22474 22473 22476     5 
22475 22473 22476     5 
22473 22476 22477     5 
22473 22476 22478     5 
22473 22476 22479     5 
22477 22476 22478     5 
22477 22476 22479     5 
22478 22476 22479     5 
22476 22479 22480     5 
22476 22479 22481     5 
22476 22479 22482     5 
22480 22479 22481     5 
22480 22479 22482     5 
22481 22479 22482     5 
22479 22482 22483     5 
22479 22482 22484     5 
22479 22482 22485     5 
22483 22482 22484     5 
22483 22482 22485     5 
22484 22482 22485     5 
22482 22485 22486     5 
22482 22485 22487     5 
22482 22485 22488     5 
22486 22485 22487     5 
22486 22485 22488     5 
22487 22485 22488     5 
22485 22488 22489     5 
22485 22488 22490     5 
22485 22488 22491     5 
22489 22488 22490     5 
22489 22488 22491     5 
22490 22488 22491     5 
22488 22491 22492     5 
22488 22491 22493     5 
22488 22491 22494     5 
22492 22491 22493     5 
22492 22491 22494     5 
22493 22491 22494     5 
22491 22494 22495     5 
22491 22494 22496     5 
22491 22494 22497     5 
22495 22494 22496     5 
22495 22494 22497     5 
22496 22494 22497     5 
22494 22497 22498     5 
22494 22497 22499     5 
22494 22497 22500     5 
22498 22497 22499     5 
22498 22497 22500     5 
22499 22497 22500     5 
22497 22500 22501     5 
22497 22500 22502     5 
22497 22500 22503     5 
22501 22500 22502     5 
22501 22500 22503     5 
22502 22500 22503     5 
22500 22503 22504     5 
22500 22503 22505     5 
22500 22503 22506     5 
22504 22503 22505     5 
22504 22503 22506     5 
22505 22503 22506     5 
22503 22506 22507     5 
22503 22506 22508     5 
22503 22506 22509     5 
22507 22506 22508     5 
22507 22506 22509     5 
22508 22506 22509     5 
22506 22509 22510     5 
22506 22509 22511     5 
22506 22509 22512     5 
22510 22509 22511     5 
22510 22509 22512     5 
22511 22509 22512     5 
22514 22513 22517     5 
22514 22513 22521     5 
22514 22513 22525     5 
22517 22513 22521     5 
22517 22513 22525     5 
22521 22513 22525     5 
22513 22514 22515     5 
22513 22514 22516     5 
22513 22514 22529     5 
22515 22514 22516     5 
22515 22514 22529     5 
22516 22514 22529     5 
22513 22517 22518     5 
22513 22517 22519     5 
22513 22517 22520     5 
22518 22517 22519     5 
22518 22517 22520     5 
22519 22517 22520     5 
22513 22521 22522     5 
22513 22521 22523     5 
22513 22521 22524     5 
22522 22521 22523     5 
22522 22521 22524     5 
22523 22521 22524     5 
22513 22525 22526     5 
22513 22525 22527     5 
22513 22525 22528     5 
22526 22525 22527     5 
22526 22525 22528     5 
22527 22525 22528     5 
22514 22529 22530     5 
22514 22529 22531     5 
22514 22529 22535     5 
22530 22529 22531     5 
22530 22529 22535     5 
22531 22529 22535     5 
22533 22532 22534     5 
22533 22532 22535     5 
22533 22532 22536     5 
22534 22532 22535     5 
22534 22532 22536     5 
22535 22532 22536     5 
22529 22535 22532     5 
22532 22536 22537     5 
22536 22537 22538     5 
22536 22537 22539     5 
22536 22537 22540     5 
22538 22537 22539     5 
22538 22537 22540     5 
22539 22537 22540     5 
22537 22540 22541     5 
22537 22540 22542     5 
22537 22540 22548     5 
22541 22540 22542     5 
22541 22540 22548     5 
22542 22540 22548     5 
22540 22542 22543     5 
22542 22543 22544     5 
22542 22543 22545     5 
22544 22543 22545     5 
22543 22545 22546     5 
22543 22545 22547     5 
22543 22545 22557     5 
22546 22545 22547     5 
22546 22545 22557     5 
22547 22545 22557     5 
22540 22548 22549     5 
22540 22548 22550     5 
22540 22548 22551     5 
22549 22548 22550     5 
22549 22548 22551     5 
22550 22548 22551     5 
22548 22551 22552     5 
22551 22552 22553     5 
22551 22552 22554     5 
22553 22552 22554     5 
22552 22554 22555     5 
22552 22554 22556     5 
22552 22554 22604     5 
22555 22554 22556     5 
22555 22554 22604     5 
22556 22554 22604     5 
22545 22557 22558     5 
22545 22557 22559     5 
22545 22557 22560     5 
22558 22557 22559     5 
22558 22557 22560     5 
22559 22557 22560     5 
22557 22560 22561     5 
22557 22560 22562     5 
22557 22560 22563     5 
22561 22560 22562     5 
22561 22560 22563     5 
22562 22560 22563     5 
22560 22563 22564     5 
22560 22563 22565     5 
22560 22563 22566     5 
22564 22563 22565     5 
22564 22563 22566     5 
22565 22563 22566     5 
22563 22566 22567     5 
22563 22566 22568     5 
22563 22566 22569     5 
22567 22566 22568     5 
22567 22566 22569     5 
22568 22566 22569     5 
22566 22569 22570     5 
22566 22569 22571     5 
22566 22569 22572     5 
22570 22569 22571     5 
22570 22569 22572     5 
22571 22569 22572     5 
22569 22572 22573     5 
22569 22572 22574     5 
22569 22572 22575     5 
22573 22572 22574     5 
22573 22572 22575     5 
22574 22572 22575     5 
22572 22575 22576     5 
22572 22575 22577     5 
22576 22575 22577     5 
22575 22577 22578     5 
22575 22577 22579     5 
22578 22577 22579     5 
22577 22579 22580     5 
22577 22579 22581     5 
22577 22579 22582     5 
22580 22579 22581     5 
22580 22579 22582     5 
22581 22579 22582     5 
22579 22582 22583     5 
22579 22582 22584     5 
22579 22582 22585     5 
22583 22582 22584     5 
22583 22582 22585     5 
22584 22582 22585     5 
22582 22585 22586     5 
22582 22585 22587     5 
22582 22585 22588     5 
22586 22585 22587     5 
22586 22585 22588     5 
22587 22585 22588     5 
22585 22588 22589     5 
22585 22588 22590     5 
22585 22588 22591     5 
22589 22588 22590     5 
22589 22588 22591     5 
22590 22588 22591     5 
22588 22591 22592     5 
22588 22591 22593     5 
22588 22591 22594     5 
22592 22591 22593     5 
22592 22591 22594     5 
22593 22591 22594     5 
22591 22594 22595     5 
22591 22594 22596     5 
22591 22594 22597     5 
22595 22594 22596     5 
22595 22594 22597     5 
22596 22594 22597     5 
22594 22597 22598     5 
22594 22597 22599     5 
22594 22597 22600     5 
22598 22597 22599     5 
22598 22597 22600     5 
22599 22597 22600     5 
22597 22600 22601     5 
22597 22600 22602     5 
22597 22600 22603     5 
22601 22600 22602     5 
22601 22600 22603     5 
22602 22600 22603     5 
22554 22604 22605     5 
22554 22604 22606     5 
22554 22604 22607     5 
22605 22604 22606     5 
22605 22604 22607     5 
22606 22604 22607     5 
22604 22607 22608     5 
22604 22607 22609     5 
22604 22607 22610     5 
22608 22607 22609     5 
22608 22607 22610     5 
22609 22607 22610     5 
22607 22610 22611     5 
22607 22610 22612     5 
22607 22610 22613     5 
22611 22610 22612     5 
22611 22610 22613     5 
22612 22610 22613     5 
22610 22613 22614     5 
22610 22613 22615     5 
22610 22613 22616     5 
22614 22613 22615     5 
22614 22613 22616     5 
22615 22613 22616     5 
22613 22616 22617     5 
22613 22616 22618     5 
22613 22616 22619     5 
22617 22616 22618     5 
22617 22616 22619     5 
22618 22616 22619     5 
22616 22619 22620     5 
22616 22619 22621     5 
22616 22619 22622     5 
22620 22619 22621     5 
22620 22619 22622     5 
22621 22619 22622     5 
22619 22622 22623     5 
22619 22622 22624     5 
22619 22622 22625     5 
22623 22622 22624     5 
22623 22622 22625     5 
22624 22622 22625     5 
22622 22625 22626     5 
22622 22625 22627     5 
22622 22625 22628     5 
22626 22625 22627     5 
22626 22625 22628     5 
22627 22625 22628     5 
22625 22628 22629     5 
22625 22628 22630     5 
22625 22628 22631     5 
22629 22628 22630     5 
22629 22628 22631     5 
22630 22628 22631     5 
22628 22631 22632     5 
22628 22631 22633     5 
22628 22631 22634     5 
22632 22631 22633     5 
22632 22631 22634     5 
22633 22631 22634     5 
22631 22634 22635     5 
22631 22634 22636     5 
22631 22634 22637     5 
22635 22634 22636     5 
22635 22634 22637     5 
22636 22634 22637     5 
22634 22637 22638     5 
22634 22637 22639     5 
22634 22637 22640     5 
22638 22637 22639     5 
22638 22637 22640     5 
22639 22637 22640     5 
22637 22640 22641     5 
22637 22640 22642     5 
22637 22640 22643     5 
22641 22640 22642     5 
22641 22640 22643     5 
22642 22640 22643     5 
22640 22643 22644     5 
22640 22643 22645     5 
22640 22643 22646     5 
22644 22643 22645     5 
22644 22643 22646     5 
22645 22643 22646     5 

[ dihedrals ]
;  ai    aj    ak    al funct            c0            c1            c2            c3            c4            c5
    5     1     2     3     9 
    5     1     2     4     9 
    5     1     2    17     9 
    9     1     2     3     9 
    9     1     2     4     9 
    9     1     2    17     9 
   13     1     2     3     9 
   13     1     2     4     9 
   13     1     2    17     9 
    2     1     5     6     9 
    2     1     5     7     9 
    2     1     5     8     9 
    9     1     5     6     9 
    9     1     5     7     9 
    9     1     5     8     9 
   13     1     5     6     9 
   13     1     5     7     9 
   13     1     5     8     9 
    2     1     9    10     9 
    2     1     9    11     9 
    2     1     9    12     9 
    5     1     9    10     9 
    5     1     9    11     9 
    5     1     9    12     9 
   13     1     9    10     9 
   13     1     9    11     9 
   13     1     9    12     9 
    2     1    13    14     9 
    2     1    13    15     9 
    2     1    13    16     9 
    5     1    13    14     9 
    5     1    13    15     9 
    5     1    13    16     9 
    9     1    13    14     9 
    9     1    13    15     9 
    9     1    13    16     9 
    1     2    17    18     9 
    1     2    17    19     9 
    1     2    17    23     9 
    3     2    17    18     9 
    3     2    17    19     9 
    3     2    17    23     9 
    4     2    17    18     9 
    4     2    17    19     9 
    4     2    17    23     9 
    2    17    23    20     9 
   18    17    23    20     9 
   19    17    23    20     9 
   21    20    23    17     9 
   22    20    23    17     9 
   24    20    23    17     9 
   21    20    24    25     9 
   22    20    24    25     9 
   23    20    24    25     9 
   20    24    25    26     9 
   20    24    25    27     9 
   20    24    25    28     9 
   24    25    28    29     9 
   24    25    28    30     9 
   24    25    28    36     9 
   26    25    28    29     9 
   26    25    28    30     9 
   26    25    28    36     9 
   27    25    28    29     9 
   27    25    28    30     9 
   27    25    28    36     9 
   25    28    30    31     9 
   29    28    30    31     9 
   36    28    30    31     9 
   25    28    36    37     9 
   25    28    36    38     9 
   25    28    36    39     9 
   29    28    36    37     9 
   29    28    36    38     9 
   29    28    36    39     9 
   30    28    36    37     9 
   30    28    36    38     9 
   30    28    36    39     9 
   28    30    31    32     9 
   28    30    31    33     9 
   30    31    33    34     9 
   30    31    33    35     9 
   30    31    33    45     9 
   32    31    33    34     9 
   32    31    33    35     9 
   32    31    33    45     9 
   31    33    45    46     9 
   31    33    45    47     9 
   31    33    45    48     9 
   34    33    45    46     9 
   34    33    45    47     9 
   34    33    45    48     9 
   35    33    45    46     9 
   35    33    45    47     9 
   35    33    45    48     9 
   28    36    39    40     9 
   37    36    39    40     9 
   38    36    39    40     9 
   36    39    40    41     9 
   36    39    40    42     9 
   39    40    42    43     9 
   39    40    42    44     9 
   39    40    42    92     9 
   41    40    42    43     9 
   41    40    42    44     9 
   41    40    42    92     9 
   40    42    92    93     9 
   40    42    92    94     9 
   40    42    92    95     9 
   43    42    92    93     9 
   43    42    92    94     9 
   43    42    92    95     9 
   44    42    92    93     9 
   44    42    92    94     9 
   44    42    92    95     9 
   33    45    48    49     9 
   33    45    48    50     9 
   33    45    48    51     9 
   46    45    48    49     9 
   46    45    48    50     9 
   46    45    48    51     9 
   47    45    48    49     9 
   47    45    48    50     9 
   47    45    48    51     9 
   45    48    51    52     9 
   45    48    51    53     9 
   45    48    51    54     9 
   49    48    51    52     9 
   49    48    51    53     9 
   49    48    51    54     9 
   50    48    51    52     9 
   50    48    51    53     9 
   50    48    51    54     9 
   48    51    54    55     9 
   48    51    54    56     9 
   48    51    54    57     9 
   52    51    54    55     9 
   52    51    54    56     9 
   52    51    54    57     9 
   53    51    54    55     9 
   53    51    54    56     9 
   53    51    54    57     9 
   51    54    57    58     9 
   51    54    57    59     9 
   51    54    57    60     9 
   55    54    57    58     9 
   55    54    57    59     9 
   55    54    57    60     9 
   56    54    57    58     9 
   56    54    57    59     9 
   56    54    57    60     9 
   54    57    60    61     9 
   54    57    60    62     9 
   54    57    60    63     9 
   58    57    60    61     9 
   58    57    60    62     9 
   58    57    60    63     9 
   59    57    60    61     9 
   59    57    60    62     9 
   59    57    60    63     9 
   57    60    63    64     9 
   57    60    63    65     9 
   61    60    63    64     9 
   61    60    63    65     9 
   62    60    63    64     9 
   62    60    63    65     9 
   60    63    65    66     9 
   60    63    65    67     9 
   64    63    65    66     9 
   64    63    65    67     9 
   63    65    67    68     9 
   63    65    67    69     9 
   63    65    67    70     9 
   66    65    67    68     9 
   66    65    67    69     9 
   66    65    67    70     9 
   65    67    70    71     9 
   65    67    70    72     9 
   65    67    70    73     9 
   68    67    70    71     9 
   68    67    70    72     9 
   68    67    70    73     9 
   69    67    70    71     9 
   69    67    70    72     9 
   69    67    70    73     9 
   67    70    73    74     9 
   67    70    73    75     9 
   67    70    73    76     9 
   71    70    73    74     9 
   71    70    73    75     9 
   71    70    73    76     9 
   72    70    73    74     9 
   72    70    73    75     9 
   72    70    73    76     9 
   70    73    76    77     9 
   70    73    76    78     9 
   70    73    76    79     9 
   74    73    76    77     9 
   74    73    76    78     9 
   74    73    76    79     9 
   75    73    76    77     9 
   75    73    76    78     9 
   75    73    76    79     9 
   73    76    79    80     9 
   73    76    79    81     9 
   73    76    79    82     9 
   77    76    79    80     9 
   77    76    79    81     9 
   77    76    79    82     9 
   78    76    79    80     9 
   78    76    79    81     9 
   78    76    79    82     9 
   76    79    82    83     9 
   76    79    82    84     9 
   76    79    82    85     9 
   80    79    82    83     9 
   80    79    82    84     9 
   80    79    82    85     9 
   81    79    82    83     9 
   81    79    82    84     9 
   81    79    82    85     9 
   79    82    85    86     9 
   79    82    85    87     9 
   79    82    85    88     9 
   83    82    85    86     9 
   83    82    85    87     9 
   83    82    85    88     9 
   84    82    85    86     9 
   84    82    85    87     9 
   84    82    85    88     9 
   82    85    88    89     9 
   82    85    88    90     9 
   82    85    88    91     9 
   86    85    88    89     9 
   86    85    88    90     9 
   86    85    88    91     9 
   87    85    88    89     9 
   87    85    88    90     9 
   87    85    88    91     9 
   42    92    95    96     9 
   42    92    95    97     9 
   42    92    95    98     9 
   93    92    95    96     9 
   93    92    95    97     9 
   93    92    95    98     9 
   94    92    95    96     9 
   94    92    95    97     9 
   94    92    95    98     9 
   92    95    98    99     9 
   92    95    98   100     9 
   92    95    98   101     9 
   96    95    98    99     9 
   96    95    98   100     9 
   96    95    98   101     9 
   97    95    98    99     9 
   97    95    98   100     9 
   97    95    98   101     9 
   95    98   101   102     9 
   95    98   101   103     9 
   95    98   101   104     9 
   99    98   101   102     9 
   99    98   101   103     9 
   99    98   101   104     9 
  100    98   101   102     9 
  100    98   101   103     9 
  100    98   101   104     9 
   98   101   104   105     9 
   98   101   104   106     9 
   98   101   104   107     9 
  102   101   104   105     9 
  102   101   104   106     9 
  102   101   104   107     9 
  103   101   104   105     9 
  103   101   104   106     9 
  103   101   104   107     9 
  101   104   107   108     9 
  101   104   107   109     9 
  101   104   107   110     9 
  105   104   107   108     9 
  105   104   107   109     9 
  105   104   107   110     9 
  106   104   107   108     9 
  106   104   107   109     9 
  106   104   107   110     9 
  104   107   110   111     9 
  104   107   110   112     9 
  104   107   110   113     9 
  108   107   110   111     9 
  108   107   110   112     9 
  108   107   110   113     9 
  109   107   110   111     9 
  109   107   110   112     9 
  109   107   110   113     9 
  107   110   113   114     9 
  107   110   113   115     9 
  107   110   113   116     9 
  111   110   113   114     9 
  111   110   113   115     9 
  111   110   113   116     9 
  112   110   113   114     9 
  112   110   113   115     9 
  112   110   113   116     9 
  110   113   116   117     9 
  110   113   116   118     9 
  110   113   116   119     9 
  114   113   116   117     9 
  114   113   116   118     9 
  114   113   116   119     9 
  115   113   116   117     9 
  115   113   116   118     9 
  115   113   116   119     9 
  113   116   119   120     9 
  113   116   119   121     9 
  113   116   119   122     9 
  117   116   119   120     9 
  117   116   119   121     9 
  117   116   119   122     9 
  118   116   119   120     9 
  118   116   119   121     9 
  118   116   119   122     9 
  116   119   122   123     9 
  116   119   122   124     9 
  116   119   122   125     9 
  120   119   122   123     9 
  120   119   122   124     9 
  120   119   122   125     9 
  121   119   122   123     9 
  121   119   122   124     9 
  121   119   122   125     9 
  119   122   125   126     9 
  119   122   125   127     9 
  119   122   125   128     9 
  123   122   125   126     9 
  123   122   125   127     9 
  123   122   125   128     9 
  124   122   125   126     9 
  124   122   125   127     9 
  124   122   125   128     9 
  122   125   128   129     9 
  122   125   128   130     9 
  122   125   128   131     9 
  126   125   128   129     9 
  126   125   128   130     9 
  126   125   128   131     9 
  127   125   128   129     9 
  127   125   128   130     9 
  127   125   128   131     9 
  125   128   131   132     9 
  125   128   131   133     9 
  125   128   131   134     9 
  129   128   131   132     9 
  129   128   131   133     9 
  129   128   131   134     9 
  130   128   131   132     9 
  130   128   131   133     9 
  130   128   131   134     9 
  139   135   136   137     9 
  139   135   136   138     9 
  139   135   136   151     9 
  143   135   136   137     9 
  143   135   136   138     9 
  143   135   136   151     9 
  147   135   136   137     9 
  147   135   136   138     9 
  147   135   136   151     9 
  136   135   139   140     9 
  136   135   139   141     9 
  136   135   139   142     9 
  143   135   139   140     9 
  143   135   139   141     9 
  143   135   139   142     9 
  147   135   139   140     9 
  147   135   139   141     9 
  147   135   139   142     9 
  136   135   143   144     9 
  136   135   143   145     9 
  136   135   143   146     9 
  139   135   143   144     9 
  139   135   143   145     9 
  139   135   143   146     9 
  147   135   143   144     9 
  147   135   143   145     9 
  147   135   143   146     9 
  136   135   147   148     9 
  136   135   147   149     9 
  136   135   147   150     9 
  139   135   147   148     9 
  139   135   147   149     9 
  139   135   147   150     9 
  143   135   147   148     9 
  143   135   147   149     9 
  143   135   147   150     9 
  135   136   151   152     9 
  135   136   151   153     9 
  135   136   151   157     9 
  137   136   151   152     9 
  137   136   151   153     9 
  137   136   151   157     9 
  138   136   151   152     9 
  138   136   151   153     9 
  138   136   151   157     9 
  136   151   157   154     9 
  152   151   157   154     9 
  153   151   157   154     9 
  155   154   157   151     9 
  156   154   157   151     9 
  158   154   157   151     9 
  155   154   158   159     9 
  156   154   158   159     9 
  157   154   158   159     9 
  154   158   159   160     9 
  154   158   159   161     9 
  154   158   159   162     9 
  158   159   162   163     9 
  158   159   162   164     9 
  158   159   162   170     9 
  160   159   162   163     9 
  160   159   162   164     9 
  160   159   162   170     9 
  161   159   162   163     9 
  161   159   162   164     9 
  161   159   162   170     9 
  159   162   164   165     9 
  163   162   164   165     9 
  170   162   164   165     9 
  159   162   170   171     9 
  159   162   170   172     9 
  159   162   170   173     9 
  163   162   170   171     9 
  163   162   170   172     9 
  163   162   170   173     9 
  164   162   170   171     9 
  164   162   170   172     9 
  164   162   170   173     9 
  162   164   165   166     9 
  162   164   165   167     9 
  164   165   167   168     9 
  164   165   167   169     9 
  164   165   167   179     9 
  166   165   167   168     9 
  166   165   167   169     9 
  166   165   167   179     9 
  165   167   179   180     9 
  165   167   179   181     9 
  165   167   179   182     9 
  168   167   179   180     9 
  168   167   179   181     9 
  168   167   179   182     9 
  169   167   179   180     9 
  169   167   179   181     9 
  169   167   179   182     9 
  162   170   173   174     9 
  171   170   173   174     9 
  172   170   173   174     9 
  170   173   174   175     9 
  170   173   174   176     9 
  173   174   176   177     9 
  173   174   176   178     9 
  173   174   176   226     9 
  175   174   176   177     9 
  175   174   176   178     9 
  175   174   176   226     9 
  174   176   226   227     9 
  174   176   226   228     9 
  174   176   226   229     9 
  177   176   226   227     9 
  177   176   226   228     9 
  177   176   226   229     9 
  178   176   226   227     9 
  178   176   226   228     9 
  178   176   226   229     9 
  167   179   182   183     9 
  167   179   182   184     9 
  167   179   182   185     9 
  180   179   182   183     9 
  180   179   182   184     9 
  180   179   182   185     9 
  181   179   182   183     9 
  181   179   182   184     9 
  181   179   182   185     9 
  179   182   185   186     9 
  179   182   185   187     9 
  179   182   185   188     9 
  183   182   185   186     9 
  183   182   185   187     9 
  183   182   185   188     9 
  184   182   185   186     9 
  184   182   185   187     9 
  184   182   185   188     9 
  182   185   188   189     9 
  182   185   188   190     9 
  182   185   188   191     9 
  186   185   188   189     9 
  186   185   188   190     9 
  186   185   188   191     9 
  187   185   188   189     9 
  187   185   188   190     9 
  187   185   188   191     9 
  185   188   191   192     9 
  185   188   191   193     9 
  185   188   191   194     9 
  189   188   191   192     9 
  189   188   191   193     9 
  189   188   191   194     9 
  190   188   191   192     9 
  190   188   191   193     9 
  190   188   191   194     9 
  188   191   194   195     9 
  188   191   194   196     9 
  188   191   194   197     9 
  192   191   194   195     9 
  192   191   194   196     9 
  192   191   194   197     9 
  193   191   194   195     9 
  193   191   194   196     9 
  193   191   194   197     9 
  191   194   197   198     9 
  191   194   197   199     9 
  195   194   197   198     9 
  195   194   197   199     9 
  196   194   197   198     9 
  196   194   197   199     9 
  194   197   199   200     9 
  194   197   199   201     9 
  198   197   199   200     9 
  198   197   199   201     9 
  197   199   201   202     9 
  197   199   201   203     9 
  197   199   201   204     9 
  200   199   201   202     9 
  200   199   201   203     9 
  200   199   201   204     9 
  199   201   204   205     9 
  199   201   204   206     9 
  199   201   204   207     9 
  202   201   204   205     9 
  202   201   204   206     9 
  202   201   204   207     9 
  203   201   204   205     9 
  203   201   204   206     9 
  203   201   204   207     9 
  201   204   207   208     9 
  201   204   207   209     9 
  201   204   207   210     9 
  205   204   207   208     9 
  205   204   207   209     9 
  205   204   207   210     9 
  206   204   207   208     9 
  206   204   207   209     9 
  206   204   207   210     9 
  204   207   210   211     9 
  204   207   210   212     9 
  204   207   210   213     9 
  208   207   210   211     9 
  208   207   210   212     9 
  208   207   210   213     9 
  209   207   210   211     9 
  209   207   210   212     9 
  209   207   210   213     9 
  207   210   213   214     9 
  207   210   213   215     9 
  207   210   213   216     9 
  211   210   213   214     9 
  211   210   213   215     9 
  211   210   213   216     9 
  212   210   213   214     9 
  212   210   213   215     9 
  212   210   213   216     9 
  210   213   216   217     9 
  210   213   216   218     9 
  210   213   216   219     9 
  214   213   216   217     9 
  214   213   216   218     9 
  214   213   216   219     9 
  215   213   216   217     9 
  215   213   216   218     9 
  215   213   216   219     9 
  213   216   219   220     9 
  213   216   219   221     9 
  213   216   219   222     9 
  217   216   219   220     9 
  217   216   219   221     9 
  217   216   219   222     9 
  218   216   219   220     9 
  218   216   219   221     9 
  218   216   219   222     9 
  216   219   222   223     9 
  216   219   222   224     9 
  216   219   222   225     9 
  220   219   222   223     9 
  220   219   222   224     9 
  220   219   222   225     9 
  221   219   222   223     9 
  221   219   222   224     9 
  221   219   222   225     9 
  176   226   229   230     9 
  176   226   229   231     9 
  176   226   229   232     9 
  227   226   229   230     9 
  227   226   229   231     9 
  227   226   229   232     9 
  228   226   229   230     9 
  228   226   229   231     9 
  228   226   229   232     9 
  226   229   232   233     9 
  226   229   232   234     9 
  226   229   232   235     9 
  230   229   232   233     9 
  230   229   232   234     9 
  230   229   232   235     9 
  231   229   232   233     9 
  231   229   232   234     9 
  231   229   232   235     9 
  229   232   235   236     9 
  229   232   235   237     9 
  229   232   235   238     9 
  233   232   235   236     9 
  233   232   235   237     9 
  233   232   235   238     9 
  234   232   235   236     9 
  234   232   235   237     9 
  234   232   235   238     9 
  232   235   238   239     9 
  232   235   238   240     9 
  232   235   238   241     9 
  236   235   238   239     9 
  236   235   238   240     9 
  236   235   238   241     9 
  237   235   238   239     9 
  237   235   238   240     9 
  237   235   238   241     9 
  235   238   241   242     9 
  235   238   241   243     9 
  235   238   241   244     9 
  239   238   241   242     9 
  239   238   241   243     9 
  239   238   241   244     9 
  240   238   241   242     9 
  240   238   241   243     9 
  240   238   241   244     9 
  238   241   244   245     9 
  238   241   244   246     9 
  238   241   244   247     9 
  242   241   244   245     9 
  242   241   244   246     9 
  242   241   244   247     9 
  243   241   244   245     9 
  243   241   244   246     9 
  243   241   244   247     9 
  241   244   247   248     9 
  241   244   247   249     9 
  241   244   247   250     9 
  245   244   247   248     9 
  245   244   247   249     9 
  245   244   247   250     9 
  246   244   247   248     9 
  246   244   247   249     9 
  246   244   247   250     9 
  244   247   250   251     9 
  244   247   250   252     9 
  244   247   250   253     9 
  248   247   250   251     9 
  248   247   250   252     9 
  248   247   250   253     9 
  249   247   250   251     9 
  249   247   250   252     9 
  249   247   250   253     9 
  247   250   253   254     9 
  247   250   253   255     9 
  247   250   253   256     9 
  251   250   253   254     9 
  251   250   253   255     9 
  251   250   253   256     9 
  252   250   253   254     9 
  252   250   253   255     9 
  252   250   253   256     9 
  250   253   256   257     9 
  250   253   256   258     9 
  250   253   256   259     9 
  254   253   256   257     9 
  254   253   256   258     9 
  254   253   256   259     9 
  255   253   256   257     9 
  255   253   256   258     9 
  255   253   256   259     9 
  253   256   259   260     9 
  253   256   259   261     9 
  253   256   259   262     9 
  257   256   259   260     9 
  257   256   259   261     9 
  257   256   259   262     9 
  258   256   259   260     9 
  258   256   259   261     9 
  258   256   259   262     9 
  256   259   262   263     9 
  256   259   262   264     9 
  256   259   262   265     9 
  260   259   262   263     9 
  260   259   262   264     9 
  260   259   262   265     9 
  261   259   262   263     9 
  261   259   262   264     9 
  261   259   262   265     9 
  259   262   265   266     9 
  259   262   265   267     9 
  259   262   265   268     9 
  263   262   265   266     9 
  263   262   265   267     9 
  263   262   265   268     9 
  264   262   265   266     9 
  264   262   265   267     9 
  264   262   265   268     9 
  273   269   270   271     9 
  273   269   270   272     9 
  273   269   270   285     9 
  277   269   270   271     9 
  277   269   270   272     9 
  277   269   270   285     9 
  281   269   270   271     9 
  281   269   270   272     9 
  281   269   270   285     9 
  270   269   273   274     9 
  270   269   273   275     9 
  270   269   273   276     9 
  277   269   273   274     9 
  277   269   273   275     9 
  277   269   273   276     9 
  281   269   273   274     9 
  281   269   273   275     9 
  281   269   273   276     9 
  270   269   277   278     9 
  270   269   277   279     9 
  270   269   277   280     9 
  273   269   277   278     9 
  273   269   277   279     9 
  273   269   277   280     9 
  281   269   277   278     9 
  281   269   277   279     9 
  281   269   277   280     9 
  270   269   281   282     9 
  270   269   281   283     9 
  270   269   281   284     9 
  273   269   281   282     9 
  273   269   281   283     9 
  273   269   281   284     9 
  277   269   281   282     9 
  277   269   281   283     9 
  277   269   281   284     9 
  269   270   285   286     9 
  269   270   285   287     9 
  269   270   285   291     9 
  271   270   285   286     9 
  271   270   285   287     9 
  271   270   285   291     9 
  272   270   285   286     9 
  272   270   285   287     9 
  272   270   285   291     9 
  270   285   291   288     9 
  286   285   291   288     9 
  287   285   291   288     9 
  289   288   291   285     9 
  290   288   291   285     9 
  292   288   291   285     9 
  289   288   292   293     9 
  290   288   292   293     9 
  291   288   292   293     9 
  288   292   293   294     9 
  288   292   293   295     9 
  288   292   293   296     9 
  292   293   296   297     9 
  292   293   296   298     9 
  292   293   296   304     9 
  294   293   296   297     9 
  294   293   296   298     9 
  294   293   296   304     9 
  295   293   296   297     9 
  295   293   296   298     9 
  295   293   296   304     9 
  293   296   298   299     9 
  297   296   298   299     9 
  304   296   298   299     9 
  293   296   304   305     9 
  293   296   304   306     9 
  293   296   304   307     9 
  297   296   304   305     9 
  297   296   304   306     9 
  297   296   304   307     9 
  298   296   304   305     9 
  298   296   304   306     9 
  298   296   304   307     9 
  296   298   299   300     9 
  296   298   299   301     9 
  298   299   301   302     9 
  298   299   301   303     9 
  298   299   301   313     9 
  300   299   301   302     9 
  300   299   301   303     9 
  300   299   301   313     9 
  299   301   313   314     9 
  299   301   313   315     9 
  299   301   313   316     9 
  302   301   313   314     9 
  302   301   313   315     9 
  302   301   313   316     9 
  303   301   313   314     9 
  303   301   313   315     9 
  303   301   313   316     9 
  296   304   307   308     9 
  305   304   307   308     9 
  306   304   307   308     9 
  304   307   308   309     9 
  304   307   308   310     9 
  307   308   310   311     9 
  307   308   310   312     9 
  307   308   310   360     9 
  309   308   310   311     9 
  309   308   310   312     9 
  309   308   310   360     9 
  308   310   360   361     9 
  308   310   360   362     9 
  308   310   360   363     9 
  311   310   360   361     9 
  311   310   360   362     9 
  311   310   360   363     9 
  312   310   360   361     9 
  312   310   360   362     9 
  312   310   360   363     9 
  301   313   316   317     9 
  301   313   316   318     9 
  301   313   316   319     9 
  314   313   316   317     9 
  314   313   316   318     9 
  314   313   316   319     9 
  315   313   316   317     9 
  315   313   316   318     9 
  315   313   316   319     9 
  313   316   319   320     9 
  313   316   319   321     9 
  313   316   319   322     9 
  317   316   319   320     9 
  317   316   319   321     9 
  317   316   319   322     9 
  318   316   319   320     9 
  318   316   319   321     9 
  318   316   319   322     9 
  316   319   322   323     9 
  316   319   322   324     9 
  316   319   322   325     9 
  320   319   322   323     9 
  320   319   322   324     9 
  320   319   322   325     9 
  321   319   322   323     9 
  321   319   322   324     9 
  321   319   322   325     9 
  319   322   325   326     9 
  319   322   325   327     9 
  319   322   325   328     9 
  323   322   325   326     9 
  323   322   325   327     9 
  323   322   325   328     9 
  324   322   325   326     9 
  324   322   325   327     9 
  324   322   325   328     9 
  322   325   328   329     9 
  322   325   328   330     9 
  322   325   328   331     9 
  326   325   328   329     9 
  326   325   328   330     9 
  326   325   328   331     9 
  327   325   328   329     9 
  327   325   328   330     9 
  327   325   328   331     9 
  325   328   331   332     9 
  325   328   331   333     9 
  329   328   331   332     9 
  329   328   331   333     9 
  330   328   331   332     9 
  330   328   331   333     9 
  328   331   333   334     9 
  328   331   333   335     9 
  332   331   333   334     9 
  332   331   333   335     9 
  331   333   335   336     9 
  331   333   335   337     9 
  331   333   335   338     9 
  334   333   335   336     9 
  334   333   335   337     9 
  334   333   335   338     9 
  333   335   338   339     9 
  333   335   338   340     9 
  333   335   338   341     9 
  336   335   338   339     9 
  336   335   338   340     9 
  336   335   338   341     9 
  337   335   338   339     9 
  337   335   338   340     9 
  337   335   338   341     9 
  335   338   341   342     9 
  335   338   341   343     9 
  335   338   341   344     9 
  339   338   341   342     9 
  339   338   341   343     9 
  339   338   341   344     9 
  340   338   341   342     9 
  340   338   341   343     9 
  340   338   341   344     9 
  338   341   344   345     9 
  338   341   344   346     9 
  338   341   344   347     9 
  342   341   344   345     9 
  342   341   344   346     9 
  342   341   344   347     9 
  343   341   344   345     9 
  343   341   344   346     9 
  343   341   344   347     9 
  341   344   347   348     9 
  341   344   347   349     9 
  341   344   347   350     9 
  345   344   347   348     9 
  345   344   347   349     9 
  345   344   347   350     9 
  346   344   347   348     9 
  346   344   347   349     9 
  346   344   347   350     9 
  344   347   350   351     9 
  344   347   350   352     9 
  344   347   350   353     9 
  348   347   350   351     9 
  348   347   350   352     9 
  348   347   350   353     9 
  349   347   350   351     9 
  349   347   350   352     9 
  349   347   350   353     9 
  347   350   353   354     9 
  347   350   353   355     9 
  347   350   353   356     9 
  351   350   353   354     9 
  351   350   353   355     9 
  351   350   353   356     9 
  352   350   353   354     9 
  352   350   353   355     9 
  352   350   353   356     9 
  350   353   356   357     9 
  350   353   356   358     9 
  350   353   356   359     9 
  354   353   356   357     9 
  354   353   356   358     9 
  354   353   356   359     9 
  355   353   356   357     9 
  355   353   356   358     9 
  355   353   356   359     9 
  310   360   363   364     9 
  310   360   363   365     9 
  310   360   363   366     9 
  361   360   363   364     9 
  361   360   363   365     9 
  361   360   363   366     9 
  362   360   363   364     9 
  362   360   363   365     9 
  362   360   363   366     9 
  360   363   366   367     9 
  360   363   366   368     9 
  360   363   366   369     9 
  364   363   366   367     9 
  364   363   366   368     9 
  364   363   366   369     9 
  365   363   366   367     9 
  365   363   366   368     9 
  365   363   366   369     9 
  363   366   369   370     9 
  363   366   369   371     9 
  363   366   369   372     9 
  367   366   369   370     9 
  367   366   369   371     9 
  367   366   369   372     9 
  368   366   369   370     9 
  368   366   369   371     9 
  368   366   369   372     9 
  366   369   372   373     9 
  366   369   372   374     9 
  366   369   372   375     9 
  370   369   372   373     9 
  370   369   372   374     9 
  370   369   372   375     9 
  371   369   372   373     9 
  371   369   372   374     9 
  371   369   372   375     9 
  369   372   375   376     9 
  369   372   375   377     9 
  369   372   375   378     9 
  373   372   375   376     9 
  373   372   375   377     9 
  373   372   375   378     9 
  374   372   375   376     9 
  374   372   375   377     9 
  374   372   375   378     9 
  372   375   378   379     9 
  372   375   378   380     9 
  372   375   378   381     9 
  376   375   378   379     9 
  376   375   378   380     9 
  376   375   378   381     9 
  377   375   378   379     9 
  377   375   378   380     9 
  377   375   378   381     9 
  375   378   381   382     9 
  375   378   381   383     9 
  375   378   381   384     9 
  379   378   381   382     9 
  379   378   381   383     9 
  379   378   381   384     9 
  380   378   381   382     9 
  380   378   381   383     9 
  380   378   381   384     9 
  378   381   384   385     9 
  378   381   384   386     9 
  378   381   384   387     9 
  382   381   384   385     9 
  382   381   384   386     9 
  382   381   384   387     9 
  383   381   384   385     9 
  383   381   384   386     9 
  383   381   384   387     9 
  381   384   387   388     9 
  381   384   387   389     9 
  381   384   387   390     9 
  385   384   387   388     9 
  385   384   387   389     9 
  385   384   387   390     9 
  386   384   387   388     9 
  386   384   387   389     9 
  386   384   387   390     9 
  384   387   390   391     9 
  384   387   390   392     9 
  384   387   390   393     9 
  388   387   390   391     9 
  388   387   390   392     9 
  388   387   390   393     9 
  389   387   390   391     9 
  389   387   390   392     9 
  389   387   390   393     9 
  387   390   393   394     9 
  387   390   393   395     9 
  387   390   393   396     9 
  391   390   393   394     9 
  391   390   393   395     9 
  391   390   393   396     9 
  392   390   393   394     9 
  392   390   393   395     9 
  392   390   393   396     9 
  390   393   396   397     9 
  390   393   396   398     9 
  390   393   396   399     9 
  394   393   396   397     9 
  394   393   396   398     9 
  394   393   396   399     9 
  395   393   396   397     9 
  395   393   396   398     9 
  395   393   396   399     9 
  393   396   399   400     9 
  393   396   399   401     9 
  393   396   399   402     9 
  397   396   399   400     9 
  397   396   399   401     9 
  397   396   399   402     9 
  398   396   399   400     9 
  398   396   399   401     9 
  398   396   399   402     9 
  407   403   404   405     9 
  407   403   404   406     9 
  407   403   404   419     9 
  411   403   404   405     9 
  411   403   404   406     9 
  411   403   404   419     9 
  415   403   404   405     9 
  415   403   404   406     9 
  415   403   404   419     9 
  404   403   407   408     9 
  404   403   407   409     9 
  404   403   407   410     9 
  411   403   407   408     9 
  411   403   407   409     9 
  411   403   407   410     9 
  415   403   407   408     9 
  415   403   407   409     9 
  415   403   407   410     9 
  404   403   411   412     9 
  404   403   411   413     9 
  404   403   411   414     9 
  407   403   411   412     9 
  407   403   411   413     9 
  407   403   411   414     9 
  415   403   411   412     9 
  415   403   411   413     9 
  415   403   411   414     9 
  404   403   415   416     9 
  404   403   415   417     9 
  404   403   415   418     9 
  407   403   415   416     9 
  407   403   415   417     9 
  407   403   415   418     9 
  411   403   415   416     9 
  411   403   415   417     9 
  411   403   415   418     9 
  403   404   419   420     9 
  403   404   419   421     9 
  403   404   419   425     9 
  405   404   419   420     9 
  405   404   419   421     9 
  405   404   419   425     9 
  406   404   419   420     9 
  406   404   419   421     9 
  406   404   419   425     9 
  404   419   425   422     9 
  420   419   425   422     9 
  421   419   425   422     9 
  423   422   425   419     9 
  424   422   425   419     9 
  426   422   425   419     9 
  423   422   426   427     9 
  424   422   426   427     9 
  425   422   426   427     9 
  422   426   427   428     9 
  422   426   427   429     9 
  422   426   427   430     9 
  426   427   430   431     9 
  426   427   430   432     9 
  426   427   430   438     9 
  428   427   430   431     9 
  428   427   430   432     9 
  428   427   430   438     9 
  429   427   430   431     9 
  429   427   430   432     9 
  429   427   430   438     9 
  427   430   432   433     9 
  431   430   432   433     9 
  438   430   432   433     9 
  427   430   438   439     9 
  427   430   438   440     9 
  427   430   438   441     9 
  431   430   438   439     9 
  431   430   438   440     9 
  431   430   438   441     9 
  432   430   438   439     9 
  432   430   438   440     9 
  432   430   438   441     9 
  430   432   433   434     9 
  430   432   433   435     9 
  432   433   435   436     9 
  432   433   435   437     9 
  432   433   435   447     9 
  434   433   435   436     9 
  434   433   435   437     9 
  434   433   435   447     9 
  433   435   447   448     9 
  433   435   447   449     9 
  433   435   447   450     9 
  436   435   447   448     9 
  436   435   447   449     9 
  436   435   447   450     9 
  437   435   447   448     9 
  437   435   447   449     9 
  437   435   447   450     9 
  430   438   441   442     9 
  439   438   441   442     9 
  440   438   441   442     9 
  438   441   442   443     9 
  438   441   442   444     9 
  441   442   444   445     9 
  441   442   444   446     9 
  441   442   444   494     9 
  443   442   444   445     9 
  443   442   444   446     9 
  443   442   444   494     9 
  442   444   494   495     9 
  442   444   494   496     9 
  442   444   494   497     9 
  445   444   494   495     9 
  445   444   494   496     9 
  445   444   494   497     9 
  446   444   494   495     9 
  446   444   494   496     9 
  446   444   494   497     9 
  435   447   450   451     9 
  435   447   450   452     9 
  435   447   450   453     9 
  448   447   450   451     9 
  448   447   450   452     9 
  448   447   450   453     9 
  449   447   450   451     9 
  449   447   450   452     9 
  449   447   450   453     9 
  447   450   453   454     9 
  447   450   453   455     9 
  447   450   453   456     9 
  451   450   453   454     9 
  451   450   453   455     9 
  451   450   453   456     9 
  452   450   453   454     9 
  452   450   453   455     9 
  452   450   453   456     9 
  450   453   456   457     9 
  450   453   456   458     9 
  450   453   456   459     9 
  454   453   456   457     9 
  454   453   456   458     9 
  454   453   456   459     9 
  455   453   456   457     9 
  455   453   456   458     9 
  455   453   456   459     9 
  453   456   459   460     9 
  453   456   459   461     9 
  453   456   459   462     9 
  457   456   459   460     9 
  457   456   459   461     9 
  457   456   459   462     9 
  458   456   459   460     9 
  458   456   459   461     9 
  458   456   459   462     9 
  456   459   462   463     9 
  456   459   462   464     9 
  456   459   462   465     9 
  460   459   462   463     9 
  460   459   462   464     9 
  460   459   462   465     9 
  461   459   462   463     9 
  461   459   462   464     9 
  461   459   462   465     9 
  459   462   465   466     9 
  459   462   465   467     9 
  463   462   465   466     9 
  463   462   465   467     9 
  464   462   465   466     9 
  464   462   465   467     9 
  462   465   467   468     9 
  462   465   467   469     9 
  466   465   467   468     9 
  466   465   467   469     9 
  465   467   469   470     9 
  465   467   469   471     9 
  465   467   469   472     9 
  468   467   469   470     9 
  468   467   469   471     9 
  468   467   469   472     9 
  467   469   472   473     9 
  467   469   472   474     9 
  467   469   472   475     9 
  470   469   472   473     9 
  470   469   472   474     9 
  470   469   472   475     9 
  471   469   472   473     9 
  471   469   472   474     9 
  471   469   472   475     9 
  469   472   475   476     9 
  469   472   475   477     9 
  469   472   475   478     9 
  473   472   475   476     9 
  473   472   475   477     9 
  473   472   475   478     9 
  474   472   475   476     9 
  474   472   475   477     9 
  474   472   475   478     9 
  472   475   478   479     9 
  472   475   478   480     9 
  472   475   478   481     9 
  476   475   478   479     9 
  476   475   478   480     9 
  476   475   478   481     9 
  477   475   478   479     9 
  477   475   478   480     9 
  477   475   478   481     9 
  475   478   481   482     9 
  475   478   481   483     9 
  475   478   481   484     9 
  479   478   481   482     9 
  479   478   481   483     9 
  479   478   481   484     9 
  480   478   481   482     9 
  480   478   481   483     9 
  480   478   481   484     9 
  478   481   484   485     9 
  478   481   484   486     9 
  478   481   484   487     9 
  482   481   484   485     9 
  482   481   484   486     9 
  482   481   484   487     9 
  483   481   484   485     9 
  483   481   484   486     9 
  483   481   484   487     9 
  481   484   487   488     9 
  481   484   487   489     9 
  481   484   487   490     9 
  485   484   487   488     9 
  485   484   487   489     9 
  485   484   487   490     9 
  486   484   487   488     9 
  486   484   487   489     9 
  486   484   487   490     9 
  484   487   490   491     9 
  484   487   490   492     9 
  484   487   490   493     9 
  488   487   490   491     9 
  488   487   490   492     9 
  488   487   490   493     9 
  489   487   490   491     9 
  489   487   490   492     9 
  489   487   490   493     9 
  444   494   497   498     9 
  444   494   497   499     9 
  444   494   497   500     9 
  495   494   497   498     9 
  495   494   497   499     9 
  495   494   497   500     9 
  496   494   497   498     9 
  496   494   497   499     9 
  496   494   497   500     9 
  494   497   500   501     9 
  494   497   500   502     9 
  494   497   500   503     9 
  498   497   500   501     9 
  498   497   500   502     9 
  498   497   500   503     9 
  499   497   500   501     9 
  499   497   500   502     9 
  499   497   500   503     9 
  497   500   503   504     9 
  497   500   503   505     9 
  497   500   503   506     9 
  501   500   503   504     9 
  501   500   503   505     9 
  501   500   503   506     9 
  502   500   503   504     9 
  502   500   503   505     9 
  502   500   503   506     9 
  500   503   506   507     9 
  500   503   506   508     9 
  500   503   506   509     9 
  504   503   506   507     9 
  504   503   506   508     9 
  504   503   506   509     9 
  505   503   506   507     9 
  505   503   506   508     9 
  505   503   506   509     9 
  503   506   509   510     9 
  503   506   509   511     9 
  503   506   509   512     9 
  507   506   509   510     9 
  507   506   509   511     9 
  507   506   509   512     9 
  508   506   509   510     9 
  508   506   509   511     9 
  508   506   509   512     9 
  506   509   512   513     9 
  506   509   512   514     9 
  506   509   512   515     9 
  510   509   512   513     9 
  510   509   512   514     9 
  510   509   512   515     9 
  511   509   512   513     9 
  511   509   512   514     9 
  511   509   512   515     9 
  509   512   515   516     9 
  509   512   515   517     9 
  509   512   515   518     9 
  513   512   515   516     9 
  513   512   515   517     9 
  513   512   515   518     9 
  514   512   515   516     9 
  514   512   515   517     9 
  514   512   515   518     9 
  512   515   518   519     9 
  512   515   518   520     9 
  512   515   518   521     9 
  516   515   518   519     9 
  516   515   518   520     9 
  516   515   518   521     9 
  517   515   518   519     9 
  517   515   518   520     9 
  517   515   518   521     9 
  515   518   521   522     9 
  515   518   521   523     9 
  515   518   521   524     9 
  519   518   521   522     9 
  519   518   521   523     9 
  519   518   521   524     9 
  520   518   521   522     9 
  520   518   521   523     9 
  520   518   521   524     9 
  518   521   524   525     9 
  518   521   524   526     9 
  518   521   524   527     9 
  522   521   524   525     9 
  522   521   524   526     9 
  522   521   524   527     9 
  523   521   524   525     9 
  523   521   524   526     9 
  523   521   524   527     9 
  521   524   527   528     9 
  521   524   527   529     9 
  521   524   527   530     9 
  525   524   527   528     9 
  525   524   527   529     9 
  525   524   527   530     9 
  526   524   527   528     9 
  526   524   527   529     9 
  526   524   527   530     9 
  524   527   530   531     9 
  524   527   530   532     9 
  524   527   530   533     9 
  528   527   530   531     9 
  528   527   530   532     9 
  528   527   530   533     9 
  529   527   530   531     9 
  529   527   530   532     9 
  529   527   530   533     9 
  527   530   533   534     9 
  527   530   533   535     9 
  527   530   533   536     9 
  531   530   533   534     9 
  531   530   533   535     9 
  531   530   533   536     9 
  532   530   533   534     9 
  532   530   533   535     9 
  532   530   533   536     9 
  541   537   538   539     9 
  541   537   538   540     9 
  541   537   538   553     9 
  545   537   538   539     9 
  545   537   538   540     9 
  545   537   538   553     9 
  549   537   538   539     9 
  549   537   538   540     9 
  549   537   538   553     9 
  538   537   541   542     9 
  538   537   541   543     9 
  538   537   541   544     9 
  545   537   541   542     9 
  545   537   541   543     9 
  545   537   541   544     9 
  549   537   541   542     9 
  549   537   541   543     9 
  549   537   541   544     9 
  538   537   545   546     9 
  538   537   545   547     9 
  538   537   545   548     9 
  541   537   545   546     9 
  541   537   545   547     9 
  541   537   545   548     9 
  549   537   545   546     9 
  549   537   545   547     9 
  549   537   545   548     9 
  538   537   549   550     9 
  538   537   549   551     9 
  538   537   549   552     9 
  541   537   549   550     9 
  541   537   549   551     9 
  541   537   549   552     9 
  545   537   549   550     9 
  545   537   549   551     9 
  545   537   549   552     9 
  537   538   553   554     9 
  537   538   553   555     9 
  537   538   553   559     9 
  539   538   553   554     9 
  539   538   553   555     9 
  539   538   553   559     9 
  540   538   553   554     9 
  540   538   553   555     9 
  540   538   553   559     9 
  538   553   559   556     9 
  554   553   559   556     9 
  555   553   559   556     9 
  557   556   559   553     9 
  558   556   559   553     9 
  560   556   559   553     9 
  557   556   560   561     9 
  558   556   560   561     9 
  559   556   560   561     9 
  556   560   561   562     9 
  556   560   561   563     9 
  556   560   561   564     9 
  560   561   564   565     9 
  560   561   564   566     9 
  560   561   564   572     9 
  562   561   564   565     9 
  562   561   564   566     9 
  562   561   564   572     9 
  563   561   564   565     9 
  563   561   564   566     9 
  563   561   564   572     9 
  561   564   566   567     9 
  565   564   566   567     9 
  572   564   566   567     9 
  561   564   572   573     9 
  561   564   572   574     9 
  561   564   572   575     9 
  565   564   572   573     9 
  565   564   572   574     9 
  565   564   572   575     9 
  566   564   572   573     9 
  566   564   572   574     9 
  566   564   572   575     9 
  564   566   567   568     9 
  564   566   567   569     9 
  566   567   569   570     9 
  566   567   569   571     9 
  566   567   569   581     9 
  568   567   569   570     9 
  568   567   569   571     9 
  568   567   569   581     9 
  567   569   581   582     9 
  567   569   581   583     9 
  567   569   581   584     9 
  570   569   581   582     9 
  570   569   581   583     9 
  570   569   581   584     9 
  571   569   581   582     9 
  571   569   581   583     9 
  571   569   581   584     9 
  564   572   575   576     9 
  573   572   575   576     9 
  574   572   575   576     9 
  572   575   576   577     9 
  572   575   576   578     9 
  575   576   578   579     9 
  575   576   578   580     9 
  575   576   578   628     9 
  577   576   578   579     9 
  577   576   578   580     9 
  577   576   578   628     9 
  576   578   628   629     9 
  576   578   628   630     9 
  576   578   628   631     9 
  579   578   628   629     9 
  579   578   628   630     9 
  579   578   628   631     9 
  580   578   628   629     9 
  580   578   628   630     9 
  580   578   628   631     9 
  569   581   584   585     9 
  569   581   584   586     9 
  569   581   584   587     9 
  582   581   584   585     9 
  582   581   584   586     9 
  582   581   584   587     9 
  583   581   584   585     9 
  583   581   584   586     9 
  583   581   584   587     9 
  581   584   587   588     9 
  581   584   587   589     9 
  581   584   587   590     9 
  585   584   587   588     9 
  585   584   587   589     9 
  585   584   587   590     9 
  586   584   587   588     9 
  586   584   587   589     9 
  586   584   587   590     9 
  584   587   590   591     9 
  584   587   590   592     9 
  584   587   590   593     9 
  588   587   590   591     9 
  588   587   590   592     9 
  588   587   590   593     9 
  589   587   590   591     9 
  589   587   590   592     9 
  589   587   590   593     9 
  587   590   593   594     9 
  587   590   593   595     9 
  587   590   593   596     9 
  591   590   593   594     9 
  591   590   593   595     9 
  591   590   593   596     9 
  592   590   593   594     9 
  592   590   593   595     9 
  592   590   593   596     9 
  590   593   596   597     9 
  590   593   596   598     9 
  590   593   596   599     9 
  594   593   596   597     9 
  594   593   596   598     9 
  594   593   596   599     9 
  595   593   596   597     9 
  595   593   596   598     9 
  595   593   596   599     9 
  593   596   599   600     9 
  593   596   599   601     9 
  597   596   599   600     9 
  597   596   599   601     9 
  598   596   599   600     9 
  598   596   599   601     9 
  596   599   601   602     9 
  596   599   601   603     9 
  600   599   601   602     9 
  600   599   601   603     9 
  599   601   603   604     9 
  599   601   603   605     9 
  599   601   603   606     9 
  602   601   603   604     9 
  602   601   603   605     9 
  602   601   603   606     9 
  601   603   606   607     9 
  601   603   606   608     9 
  601   603   606   609     9 
  604   603   606   607     9 
  604   603   606   608     9 
  604   603   606   609     9 
  605   603   606   607     9 
  605   603   606   608     9 
  605   603   606   609     9 
  603   606   609   610     9 
  603   606   609   611     9 
  603   606   609   612     9 
  607   606   609   610     9 
  607   606   609   611     9 
  607   606   609   612     9 
  608   606   609   610     9 
  608   606   609   611     9 
  608   606   609   612     9 
  606   609   612   613     9 
  606   609   612   614     9 
  606   609   612   615     9 
  610   609   612   613     9 
  610   609   612   614     9 
  610   609   612   615     9 
  611   609   612   613     9 
  611   609   612   614     9 
  611   609   612   615     9 
  609   612   615   616     9 
  609   612   615   617     9 
  609   612   615   618     9 
  613   612   615   616     9 
  613   612   615   617     9 
  613   612   615   618     9 
  614   612   615   616     9 
  614   612   615   617     9 
  614   612   615   618     9 
  612   615   618   619     9 
  612   615   618   620     9 
  612   615   618   621     9 
  616   615   618   619     9 
  616   615   618   620     9 
  616   615   618   621     9 
  617   615   618   619     9 
  617   615   618   620     9 
  617   615   618   621     9 
  615   618   621   622     9 
  615   618   621   623     9 
  615   618   621   624     9 
  619   618   621   622     9 
  619   618   621   623     9 
  619   618   621   624     9 
  620   618   621   622     9 
  620   618   621   623     9 
  620   618   621   624     9 
  618   621   624   625     9 
  618   621   624   626     9 
  618   621   624   627     9 
  622   621   624   625     9 
  622   621   624   626     9 
  622   621   624   627     9 
  623   621   624   625     9 
  623   621   624   626     9 
  623   621   624   627     9 
  578   628   631   632     9 
  578   628   631   633     9 
  578   628   631   634     9 
  629   628   631   632     9 
  629   628   631   633     9 
  629   628   631   634     9 
  630   628   631   632     9 
  630   628   631   633     9 
  630   628   631   634     9 
  628   631   634   635     9 
  628   631   634   636     9 
  628   631   634   637     9 
  632   631   634   635     9 
  632   631   634   636     9 
  632   631   634   637     9 
  633   631   634   635     9 
  633   631   634   636     9 
  633   631   634   637     9 
  631   634   637   638     9 
  631   634   637   639     9 
  631   634   637   640     9 
  635   634   637   638     9 
  635   634   637   639     9 
  635   634   637   640     9 
  636   634   637   638     9 
  636   634   637   639     9 
  636   634   637   640     9 
  634   637   640   641     9 
  634   637   640   642     9 
  634   637   640   643     9 
  638   637   640   641     9 
  638   637   640   642     9 
  638   637   640   643     9 
  639   637   640   641     9 
  639   637   640   642     9 
  639   637   640   643     9 
  637   640   643   644     9 
  637   640   643   645     9 
  637   640   643   646     9 
  641   640   643   644     9 
  641   640   643   645     9 
  641   640   643   646     9 
  642   640   643   644     9 
  642   640   643   645     9 
  642   640   643   646     9 
  640   643   646   647     9 
  640   643   646   648     9 
  640   643   646   649     9 
  644   643   646   647     9 
  644   643   646   648     9 
  644   643   646   649     9 
  645   643   646   647     9 
  645   643   646   648     9 
  645   643   646   649     9 
  643   646   649   650     9 
  643   646   649   651     9 
  643   646   649   652     9 
  647   646   649   650     9 
  647   646   649   651     9 
  647   646   649   652     9 
  648   646   649   650     9 
  648   646   649   651     9 
  648   646   649   652     9 
  646   649   652   653     9 
  646   649   652   654     9 
  646   649   652   655     9 
  650   649   652   653     9 
  650   649   652   654     9 
  650   649   652   655     9 
  651   649   652   653     9 
  651   649   652   654     9 
  651   649   652   655     9 
  649   652   655   656     9 
  649   652   655   657     9 
  649   652   655   658     9 
  653   652   655   656     9 
  653   652   655   657     9 
  653   652   655   658     9 
  654   652   655   656     9 
  654   652   655   657     9 
  654   652   655   658     9 
  652   655   658   659     9 
  652   655   658   660     9 
  652   655   658   661     9 
  656   655   658   659     9 
  656   655   658   660     9 
  656   655   658   661     9 
  657   655   658   659     9 
  657   655   658   660     9 
  657   655   658   661     9 
  655   658   661   662     9 
  655   658   661   663     9 
  655   658   661   664     9 
  659   658   661   662     9 
  659   658   661   663     9 
  659   658   661   664     9 
  660   658   661   662     9 
  660   658   661   663     9 
  660   658   661   664     9 
  658   661   664   665     9 
  658   661   664   666     9 
  658   661   664   667     9 
  662   661   664   665     9 
  662   661   664   666     9 
  662   661   664   667     9 
  663   661   664   665     9 
  663   661   664   666     9 
  663   661   664   667     9 
  661   664   667   668     9 
  661   664   667   669     9 
  661   664   667   670     9 
  665   664   667   668     9 
  665   664   667   669     9 
  665   664   667   670     9 
  666   664   667   668     9 
  666   664   667   669     9 
  666   664   667   670     9 
  675   671   672   673     9 
  675   671   672   674     9 
  675   671   672   687     9 
  679   671   672   673     9 
  679   671   672   674     9 
  679   671   672   687     9 
  683   671   672   673     9 
  683   671   672   674     9 
  683   671   672   687     9 
  672   671   675   676     9 
  672   671   675   677     9 
  672   671   675   678     9 
  679   671   675   676     9 
  679   671   675   677     9 
  679   671   675   678     9 
  683   671   675   676     9 
  683   671   675   677     9 
  683   671   675   678     9 
  672   671   679   680     9 
  672   671   679   681     9 
  672   671   679   682     9 
  675   671   679   680     9 
  675   671   679   681     9 
  675   671   679   682     9 
  683   671   679   680     9 
  683   671   679   681     9 
  683   671   679   682     9 
  672   671   683   684     9 
  672   671   683   685     9 
  672   671   683   686     9 
  675   671   683   684     9 
  675   671   683   685     9 
  675   671   683   686     9 
  679   671   683   684     9 
  679   671   683   685     9 
  679   671   683   686     9 
  671   672   687   688     9 
  671   672   687   689     9 
  671   672   687   693     9 
  673   672   687   688     9 
  673   672   687   689     9 
  673   672   687   693     9 
  674   672   687   688     9 
  674   672   687   689     9 
  674   672   687   693     9 
  672   687   693   690     9 
  688   687   693   690     9 
  689   687   693   690     9 
  691   690   693   687     9 
  692   690   693   687     9 
  694   690   693   687     9 
  691   690   694   695     9 
  692   690   694   695     9 
  693   690   694   695     9 
  690   694   695   696     9 
  690   694   695   697     9 
  690   694   695   698     9 
  694   695   698   699     9 
  694   695   698   700     9 
  694   695   698   706     9 
  696   695   698   699     9 
  696   695   698   700     9 
  696   695   698   706     9 
  697   695   698   699     9 
  697   695   698   700     9 
  697   695   698   706     9 
  695   698   700   701     9 
  699   698   700   701     9 
  706   698   700   701     9 
  695   698   706   707     9 
  695   698   706   708     9 
  695   698   706   709     9 
  699   698   706   707     9 
  699   698   706   708     9 
  699   698   706   709     9 
  700   698   706   707     9 
  700   698   706   708     9 
  700   698   706   709     9 
  698   700   701   702     9 
  698   700   701   703     9 
  700   701   703   704     9 
  700   701   703   705     9 
  700   701   703   715     9 
  702   701   703   704     9 
  702   701   703   705     9 
  702   701   703   715     9 
  701   703   715   716     9 
  701   703   715   717     9 
  701   703   715   718     9 
  704   703   715   716     9 
  704   703   715   717     9 
  704   703   715   718     9 
  705   703   715   716     9 
  705   703   715   717     9 
  705   703   715   718     9 
  698   706   709   710     9 
  707   706   709   710     9 
  708   706   709   710     9 
  706   709   710   711     9 
  706   709   710   712     9 
  709   710   712   713     9 
  709   710   712   714     9 
  709   710   712   762     9 
  711   710   712   713     9 
  711   710   712   714     9 
  711   710   712   762     9 
  710   712   762   763     9 
  710   712   762   764     9 
  710   712   762   765     9 
  713   712   762   763     9 
  713   712   762   764     9 
  713   712   762   765     9 
  714   712   762   763     9 
  714   712   762   764     9 
  714   712   762   765     9 
  703   715   718   719     9 
  703   715   718   720     9 
  703   715   718   721     9 
  716   715   718   719     9 
  716   715   718   720     9 
  716   715   718   721     9 
  717   715   718   719     9 
  717   715   718   720     9 
  717   715   718   721     9 
  715   718   721   722     9 
  715   718   721   723     9 
  715   718   721   724     9 
  719   718   721   722     9 
  719   718   721   723     9 
  719   718   721   724     9 
  720   718   721   722     9 
  720   718   721   723     9 
  720   718   721   724     9 
  718   721   724   725     9 
  718   721   724   726     9 
  718   721   724   727     9 
  722   721   724   725     9 
  722   721   724   726     9 
  722   721   724   727     9 
  723   721   724   725     9 
  723   721   724   726     9 
  723   721   724   727     9 
  721   724   727   728     9 
  721   724   727   729     9 
  721   724   727   730     9 
  725   724   727   728     9 
  725   724   727   729     9 
  725   724   727   730     9 
  726   724   727   728     9 
  726   724   727   729     9 
  726   724   727   730     9 
  724   727   730   731     9 
  724   727   730   732     9 
  724   727   730   733     9 
  728   727   730   731     9 
  728   727   730   732     9 
  728   727   730   733     9 
  729   727   730   731     9 
  729   727   730   732     9 
  729   727   730   733     9 
  727   730   733   734     9 
  727   730   733   735     9 
  731   730   733   734     9 
  731   730   733   735     9 
  732   730   733   734     9 
  732   730   733   735     9 
  730   733   735   736     9 
  730   733   735   737     9 
  734   733   735   736     9 
  734   733   735   737     9 
  733   735   737   738     9 
  733   735   737   739     9 
  733   735   737   740     9 
  736   735   737   738     9 
  736   735   737   739     9 
  736   735   737   740     9 
  735   737   740   741     9 
  735   737   740   742     9 
  735   737   740   743     9 
  738   737   740   741     9 
  738   737   740   742     9 
  738   737   740   743     9 
  739   737   740   741     9 
  739   737   740   742     9 
  739   737   740   743     9 
  737   740   743   744     9 
  737   740   743   745     9 
  737   740   743   746     9 
  741   740   743   744     9 
  741   740   743   745     9 
  741   740   743   746     9 
  742   740   743   744     9 
  742   740   743   745     9 
  742   740   743   746     9 
  740   743   746   747     9 
  740   743   746   748     9 
  740   743   746   749     9 
  744   743   746   747     9 
  744   743   746   748     9 
  744   743   746   749     9 
  745   743   746   747     9 
  745   743   746   748     9 
  745   743   746   749     9 
  743   746   749   750     9 
  743   746   749   751     9 
  743   746   749   752     9 
  747   746   749   750     9 
  747   746   749   751     9 
  747   746   749   752     9 
  748   746   749   750     9 
  748   746   749   751     9 
  748   746   749   752     9 
  746   749   752   753     9 
  746   749   752   754     9 
  746   749   752   755     9 
  750   749   752   753     9 
  750   749   752   754     9 
  750   749   752   755     9 
  751   749   752   753     9 
  751   749   752   754     9 
  751   749   752   755     9 
  749   752   755   756     9 
  749   752   755   757     9 
  749   752   755   758     9 
  753   752   755   756     9 
  753   752   755   757     9 
  753   752   755   758     9 
  754   752   755   756     9 
  754   752   755   757     9 
  754   752   755   758     9 
  752   755   758   759     9 
  752   755   758   760     9 
  752   755   758   761     9 
  756   755   758   759     9 
  756   755   758   760     9 
  756   755   758   761     9 
  757   755   758   759     9 
  757   755   758   760     9 
  757   755   758   761     9 
  712   762   765   766     9 
  712   762   765   767     9 
  712   762   765   768     9 
  763   762   765   766     9 
  763   762   765   767     9 
  763   762   765   768     9 
  764   762   765   766     9 
  764   762   765   767     9 
  764   762   765   768     9 
  762   765   768   769     9 
  762   765   768   770     9 
  762   765   768   771     9 
  766   765   768   769     9 
  766   765   768   770     9 
  766   765   768   771     9 
  767   765   768   769     9 
  767   765   768   770     9 
  767   765   768   771     9 
  765   768   771   772     9 
  765   768   771   773     9 
  765   768   771   774     9 
  769   768   771   772     9 
  769   768   771   773     9 
  769   768   771   774     9 
  770   768   771   772     9 
  770   768   771   773     9 
  770   768   771   774     9 
  768   771   774   775     9 
  768   771   774   776     9 
  768   771   774   777     9 
  772   771   774   775     9 
  772   771   774   776     9 
  772   771   774   777     9 
  773   771   774   775     9 
  773   771   774   776     9 
  773   771   774   777     9 
  771   774   777   778     9 
  771   774   777   779     9 
  771   774   777   780     9 
  775   774   777   778     9 
  775   774   777   779     9 
  775   774   777   780     9 
  776   774   777   778     9 
  776   774   777   779     9 
  776   774   777   780     9 
  774   777   780   781     9 
  774   777   780   782     9 
  774   777   780   783     9 
  778   777   780   781     9 
  778   777   780   782     9 
  778   777   780   783     9 
  779   777   780   781     9 
  779   777   780   782     9 
  779   777   780   783     9 
  777   780   783   784     9 
  777   780   783   785     9 
  777   780   783   786     9 
  781   780   783   784     9 
  781   780   783   785     9 
  781   780   783   786     9 
  782   780   783   784     9 
  782   780   783   785     9 
  782   780   783   786     9 
  780   783   786   787     9 
  780   783   786   788     9 
  780   783   786   789     9 
  784   783   786   787     9 
  784   783   786   788     9 
  784   783   786   789     9 
  785   783   786   787     9 
  785   783   786   788     9 
  785   783   786   789     9 
  783   786   789   790     9 
  783   786   789   791     9 
  783   786   789   792     9 
  787   786   789   790     9 
  787   786   789   791     9 
  787   786   789   792     9 
  788   786   789   790     9 
  788   786   789   791     9 
  788   786   789   792     9 
  786   789   792   793     9 
  786   789   792   794     9 
  786   789   792   795     9 
  790   789   792   793     9 
  790   789   792   794     9 
  790   789   792   795     9 
  791   789   792   793     9 
  791   789   792   794     9 
  791   789   792   795     9 
  789   792   795   796     9 
  789   792   795   797     9 
  789   792   795   798     9 
  793   792   795   796     9 
  793   792   795   797     9 
  793   792   795   798     9 
  794   792   795   796     9 
  794   792   795   797     9 
  794   792   795   798     9 
  792   795   798   799     9 
  792   795   798   800     9 
  792   795   798   801     9 
  796   795   798   799     9 
  796   795   798   800     9 
  796   795   798   801     9 
  797   795   798   799     9 
  797   795   798   800     9 
  797   795   798   801     9 
  795   798   801   802     9 
  795   798   801   803     9 
  795   798   801   804     9 
  799   798   801   802     9 
  799   798   801   803     9 
  799   798   801   804     9 
  800   798   801   802     9 
  800   798   801   803     9 
  800   798   801   804     9 
  809   805   806   807     9 
  809   805   806   808     9 
  809   805   806   821     9 
  813   805   806   807     9 
  813   805   806   808     9 
  813   805   806   821     9 
  817   805   806   807     9 
  817   805   806   808     9 
  817   805   806   821     9 
  806   805   809   810     9 
  806   805   809   811     9 
  806   805   809   812     9 
  813   805   809   810     9 
  813   805   809   811     9 
  813   805   809   812     9 
  817   805   809   810     9 
  817   805   809   811     9 
  817   805   809   812     9 
  806   805   813   814     9 
  806   805   813   815     9 
  806   805   813   816     9 
  809   805   813   814     9 
  809   805   813   815     9 
  809   805   813   816     9 
  817   805   813   814     9 
  817   805   813   815     9 
  817   805   813   816     9 
  806   805   817   818     9 
  806   805   817   819     9 
  806   805   817   820     9 
  809   805   817   818     9 
  809   805   817   819     9 
  809   805   817   820     9 
  813   805   817   818     9 
  813   805   817   819     9 
  813   805   817   820     9 
  805   806   821   822     9 
  805   806   821   823     9 
  805   806   821   827     9 
  807   806   821   822     9 
  807   806   821   823     9 
  807   806   821   827     9 
  808   806   821   822     9 
  808   806   821   823     9 
  808   806   821   827     9 
  806   821   827   824     9 
  822   821   827   824     9 
  823   821   827   824     9 
  825   824   827   821     9 
  826   824   827   821     9 
  828   824   827   821     9 
  825   824   828   829     9 
  826   824   828   829     9 
  827   824   828   829     9 
  824   828   829   830     9 
  824   828   829   831     9 
  824   828   829   832     9 
  828   829   832   833     9 
  828   829   832   834     9 
  828   829   832   840     9 
  830   829   832   833     9 
  830   829   832   834     9 
  830   829   832   840     9 
  831   829   832   833     9 
  831   829   832   834     9 
  831   829   832   840     9 
  829   832   834   835     9 
  833   832   834   835     9 
  840   832   834   835     9 
  829   832   840   841     9 
  829   832   840   842     9 
  829   832   840   843     9 
  833   832   840   841     9 
  833   832   840   842     9 
  833   832   840   843     9 
  834   832   840   841     9 
  834   832   840   842     9 
  834   832   840   843     9 
  832   834   835   836     9 
  832   834   835   837     9 
  834   835   837   838     9 
  834   835   837   839     9 
  834   835   837   849     9 
  836   835   837   838     9 
  836   835   837   839     9 
  836   835   837   849     9 
  835   837   849   850     9 
  835   837   849   851     9 
  835   837   849   852     9 
  838   837   849   850     9 
  838   837   849   851     9 
  838   837   849   852     9 
  839   837   849   850     9 
  839   837   849   851     9 
  839   837   849   852     9 
  832   840   843   844     9 
  841   840   843   844     9 
  842   840   843   844     9 
  840   843   844   845     9 
  840   843   844   846     9 
  843   844   846   847     9 
  843   844   846   848     9 
  843   844   846   896     9 
  845   844   846   847     9 
  845   844   846   848     9 
  845   844   846   896     9 
  844   846   896   897     9 
  844   846   896   898     9 
  844   846   896   899     9 
  847   846   896   897     9 
  847   846   896   898     9 
  847   846   896   899     9 
  848   846   896   897     9 
  848   846   896   898     9 
  848   846   896   899     9 
  837   849   852   853     9 
  837   849   852   854     9 
  837   849   852   855     9 
  850   849   852   853     9 
  850   849   852   854     9 
  850   849   852   855     9 
  851   849   852   853     9 
  851   849   852   854     9 
  851   849   852   855     9 
  849   852   855   856     9 
  849   852   855   857     9 
  849   852   855   858     9 
  853   852   855   856     9 
  853   852   855   857     9 
  853   852   855   858     9 
  854   852   855   856     9 
  854   852   855   857     9 
  854   852   855   858     9 
  852   855   858   859     9 
  852   855   858   860     9 
  852   855   858   861     9 
  856   855   858   859     9 
  856   855   858   860     9 
  856   855   858   861     9 
  857   855   858   859     9 
  857   855   858   860     9 
  857   855   858   861     9 
  855   858   861   862     9 
  855   858   861   863     9 
  855   858   861   864     9 
  859   858   861   862     9 
  859   858   861   863     9 
  859   858   861   864     9 
  860   858   861   862     9 
  860   858   861   863     9 
  860   858   861   864     9 
  858   861   864   865     9 
  858   861   864   866     9 
  858   861   864   867     9 
  862   861   864   865     9 
  862   861   864   866     9 
  862   861   864   867     9 
  863   861   864   865     9 
  863   861   864   866     9 
  863   861   864   867     9 
  861   864   867   868     9 
  861   864   867   869     9 
  865   864   867   868     9 
  865   864   867   869     9 
  866   864   867   868     9 
  866   864   867   869     9 
  864   867   869   870     9 
  864   867   869   871     9 
  868   867   869   870     9 
  868   867   869   871     9 
  867   869   871   872     9 
  867   869   871   873     9 
  867   869   871   874     9 
  870   869   871   872     9 
  870   869   871   873     9 
  870   869   871   874     9 
  869   871   874   875     9 
  869   871   874   876     9 
  869   871   874   877     9 
  872   871   874   875     9 
  872   871   874   876     9 
  872   871   874   877     9 
  873   871   874   875     9 
  873   871   874   876     9 
  873   871   874   877     9 
  871   874   877   878     9 
  871   874   877   879     9 
  871   874   877   880     9 
  875   874   877   878     9 
  875   874   877   879     9 
  875   874   877   880     9 
  876   874   877   878     9 
  876   874   877   879     9 
  876   874   877   880     9 
  874   877   880   881     9 
  874   877   880   882     9 
  874   877   880   883     9 
  878   877   880   881     9 
  878   877   880   882     9 
  878   877   880   883     9 
  879   877   880   881     9 
  879   877   880   882     9 
  879   877   880   883     9 
  877   880   883   884     9 
  877   880   883   885     9 
  877   880   883   886     9 
  881   880   883   884     9 
  881   880   883   885     9 
  881   880   883   886     9 
  882   880   883   884     9 
  882   880   883   885     9 
  882   880   883   886     9 
  880   883   886   887     9 
  880   883   886   888     9 
  880   883   886   889     9 
  884   883   886   887     9 
  884   883   886   888     9 
  884   883   886   889     9 
  885   883   886   887     9 
  885   883   886   888     9 
  885   883   886   889     9 
  883   886   889   890     9 
  883   886   889   891     9 
  883   886   889   892     9 
  887   886   889   890     9 
  887   886   889   891     9 
  887   886   889   892     9 
  888   886   889   890     9 
  888   886   889   891     9 
  888   886   889   892     9 
  886   889   892   893     9 
  886   889   892   894     9 
  886   889   892   895     9 
  890   889   892   893     9 
  890   889   892   894     9 
  890   889   892   895     9 
  891   889   892   893     9 
  891   889   892   894     9 
  891   889   892   895     9 
  846   896   899   900     9 
  846   896   899   901     9 
  846   896   899   902     9 
  897   896   899   900     9 
  897   896   899   901     9 
  897   896   899   902     9 
  898   896   899   900     9 
  898   896   899   901     9 
  898   896   899   902     9 
  896   899   902   903     9 
  896   899   902   904     9 
  896   899   902   905     9 
  900   899   902   903     9 
  900   899   902   904     9 
  900   899   902   905     9 
  901   899   902   903     9 
  901   899   902   904     9 
  901   899   902   905     9 
  899   902   905   906     9 
  899   902   905   907     9 
  899   902   905   908     9 
  903   902   905   906     9 
  903   902   905   907     9 
  903   902   905   908     9 
  904   902   905   906     9 
  904   902   905   907     9 
  904   902   905   908     9 
  902   905   908   909     9 
  902   905   908   910     9 
  902   905   908   911     9 
  906   905   908   909     9 
  906   905   908   910     9 
  906   905   908   911     9 
  907   905   908   909     9 
  907   905   908   910     9 
  907   905   908   911     9 
  905   908   911   912     9 
  905   908   911   913     9 
  905   908   911   914     9 
  909   908   911   912     9 
  909   908   911   913     9 
  909   908   911   914     9 
  910   908   911   912     9 
  910   908   911   913     9 
  910   908   911   914     9 
  908   911   914   915     9 
  908   911   914   916     9 
  908   911   914   917     9 
  912   911   914   915     9 
  912   911   914   916     9 
  912   911   914   917     9 
  913   911   914   915     9 
  913   911   914   916     9 
  913   911   914   917     9 
  911   914   917   918     9 
  911   914   917   919     9 
  911   914   917   920     9 
  915   914   917   918     9 
  915   914   917   919     9 
  915   914   917   920     9 
  916   914   917   918     9 
  916   914   917   919     9 
  916   914   917   920     9 
  914   917   920   921     9 
  914   917   920   922     9 
  914   917   920   923     9 
  918   917   920   921     9 
  918   917   920   922     9 
  918   917   920   923     9 
  919   917   920   921     9 
  919   917   920   922     9 
  919   917   920   923     9 
  917   920   923   924     9 
  917   920   923   925     9 
  917   920   923   926     9 
  921   920   923   924     9 
  921   920   923   925     9 
  921   920   923   926     9 
  922   920   923   924     9 
  922   920   923   925     9 
  922   920   923   926     9 
  920   923   926   927     9 
  920   923   926   928     9 
  920   923   926   929     9 
  924   923   926   927     9 
  924   923   926   928     9 
  924   923   926   929     9 
  925   923   926   927     9 
  925   923   926   928     9 
  925   923   926   929     9 
  923   926   929   930     9 
  923   926   929   931     9 
  923   926   929   932     9 
  927   926   929   930     9 
  927   926   929   931     9 
  927   926   929   932     9 
  928   926   929   930     9 
  928   926   929   931     9 
  928   926   929   932     9 
  926   929   932   933     9 
  926   929   932   934     9 
  926   929   932   935     9 
  930   929   932   933     9 
  930   929   932   934     9 
  930   929   932   935     9 
  931   929   932   933     9 
  931   929   932   934     9 
  931   929   932   935     9 
  929   932   935   936     9 
  929   932   935   937     9 
  929   932   935   938     9 
  933   932   935   936     9 
  933   932   935   937     9 
  933   932   935   938     9 
  934   932   935   936     9 
  934   932   935   937     9 
  934   932   935   938     9 
  943   939   940   941     9 
  943   939   940   942     9 
  943   939   940   955     9 
  947   939   940   941     9 
  947   939   940   942     9 
  947   939   940   955     9 
  951   939   940   941     9 
  951   939   940   942     9 
  951   939   940   955     9 
  940   939   943   944     9 
  940   939   943   945     9 
  940   939   943   946     9 
  947   939   943   944     9 
  947   939   943   945     9 
  947   939   943   946     9 
  951   939   943   944     9 
  951   939   943   945     9 
  951   939   943   946     9 
  940   939   947   948     9 
  940   939   947   949     9 
  940   939   947   950     9 
  943   939   947   948     9 
  943   939   947   949     9 
  943   939   947   950     9 
  951   939   947   948     9 
  951   939   947   949     9 
  951   939   947   950     9 
  940   939   951   952     9 
  940   939   951   953     9 
  940   939   951   954     9 
  943   939   951   952     9 
  943   939   951   953     9 
  943   939   951   954     9 
  947   939   951   952     9 
  947   939   951   953     9 
  947   939   951   954     9 
  939   940   955   956     9 
  939   940   955   957     9 
  939   940   955   961     9 
  941   940   955   956     9 
  941   940   955   957     9 
  941   940   955   961     9 
  942   940   955   956     9 
  942   940   955   957     9 
  942   940   955   961     9 
  940   955   961   958     9 
  956   955   961   958     9 
  957   955   961   958     9 
  959   958   961   955     9 
  960   958   961   955     9 
  962   958   961   955     9 
  959   958   962   963     9 
  960   958   962   963     9 
  961   958   962   963     9 
  958   962   963   964     9 
  958   962   963   965     9 
  958   962   963   966     9 
  962   963   966   967     9 
  962   963   966   968     9 
  962   963   966   974     9 
  964   963   966   967     9 
  964   963   966   968     9 
  964   963   966   974     9 
  965   963   966   967     9 
  965   963   966   968     9 
  965   963   966   974     9 
  963   966   968   969     9 
  967   966   968   969     9 
  974   966   968   969     9 
  963   966   974   975     9 
  963   966   974   976     9 
  963   966   974   977     9 
  967   966   974   975     9 
  967   966   974   976     9 
  967   966   974   977     9 
  968   966   974   975     9 
  968   966   974   976     9 
  968   966   974   977     9 
  966   968   969   970     9 
  966   968   969   971     9 
  968   969   971   972     9 
  968   969   971   973     9 
  968   969   971   983     9 
  970   969   971   972     9 
  970   969   971   973     9 
  970   969   971   983     9 
  969   971   983   984     9 
  969   971   983   985     9 
  969   971   983   986     9 
  972   971   983   984     9 
  972   971   983   985     9 
  972   971   983   986     9 
  973   971   983   984     9 
  973   971   983   985     9 
  973   971   983   986     9 
  966   974   977   978     9 
  975   974   977   978     9 
  976   974   977   978     9 
  974   977   978   979     9 
  974   977   978   980     9 
  977   978   980   981     9 
  977   978   980   982     9 
  977   978   980  1030     9 
  979   978   980   981     9 
  979   978   980   982     9 
  979   978   980  1030     9 
  978   980  1030  1031     9 
  978   980  1030  1032     9 
  978   980  1030  1033     9 
  981   980  1030  1031     9 
  981   980  1030  1032     9 
  981   980  1030  1033     9 
  982   980  1030  1031     9 
  982   980  1030  1032     9 
  982   980  1030  1033     9 
  971   983   986   987     9 
  971   983   986   988     9 
  971   983   986   989     9 
  984   983   986   987     9 
  984   983   986   988     9 
  984   983   986   989     9 
  985   983   986   987     9 
  985   983   986   988     9 
  985   983   986   989     9 
  983   986   989   990     9 
  983   986   989   991     9 
  983   986   989   992     9 
  987   986   989   990     9 
  987   986   989   991     9 
  987   986   989   992     9 
  988   986   989   990     9 
  988   986   989   991     9 
  988   986   989   992     9 
  986   989   992   993     9 
  986   989   992   994     9 
  986   989   992   995     9 
  990   989   992   993     9 
  990   989   992   994     9 
  990   989   992   995     9 
  991   989   992   993     9 
  991   989   992   994     9 
  991   989   992   995     9 
  989   992   995   996     9 
  989   992   995   997     9 
  989   992   995   998     9 
  993   992   995   996     9 
  993   992   995   997     9 
  993   992   995   998     9 
  994   992   995   996     9 
  994   992   995   997     9 
  994   992   995   998     9 
  992   995   998   999     9 
  992   995   998  1000     9 
  992   995   998  1001     9 
  996   995   998   999     9 
  996   995   998  1000     9 
  996   995   998  1001     9 
  997   995   998   999     9 
  997   995   998  1000     9 
  997   995   998  1001     9 
  995   998  1001  1002     9 
  995   998  1001  1003     9 
  999   998  1001  1002     9 
  999   998  1001  1003     9 
 1000   998  1001  1002     9 
 1000   998  1001  1003     9 
  998  1001  1003  1004     9 
  998  1001  1003  1005     9 
 1002  1001  1003  1004     9 
 1002  1001  1003  1005     9 
 1001  1003  1005  1006     9 
 1001  1003  1005  1007     9 
 1001  1003  1005  1008     9 
 1004  1003  1005  1006     9 
 1004  1003  1005  1007     9 
 1004  1003  1005  1008     9 
 1003  1005  1008  1009     9 
 1003  1005  1008  1010     9 
 1003  1005  1008  1011     9 
 1006  1005  1008  1009     9 
 1006  1005  1008  1010     9 
 1006  1005  1008  1011     9 
 1007  1005  1008  1009     9 
 1007  1005  1008  1010     9 
 1007  1005  1008  1011     9 
 1005  1008  1011  1012     9 
 1005  1008  1011  1013     9 
 1005  1008  1011  1014     9 
 1009  1008  1011  1012     9 
 1009  1008  1011  1013     9 
 1009  1008  1011  1014     9 
 1010  1008  1011  1012     9 
 1010  1008  1011  1013     9 
 1010  1008  1011  1014     9 
 1008  1011  1014  1015     9 
 1008  1011  1014  1016     9 
 1008  1011  1014  1017     9 
 1012  1011  1014  1015     9 
 1012  1011  1014  1016     9 
 1012  1011  1014  1017     9 
 1013  1011  1014  1015     9 
 1013  1011  1014  1016     9 
 1013  1011  1014  1017     9 
 1011  1014  1017  1018     9 
 1011  1014  1017  1019     9 
 1011  1014  1017  1020     9 
 1015  1014  1017  1018     9 
 1015  1014  1017  1019     9 
 1015  1014  1017  1020     9 
 1016  1014  1017  1018     9 
 1016  1014  1017  1019     9 
 1016  1014  1017  1020     9 
 1014  1017  1020  1021     9 
 1014  1017  1020  1022     9 
 1014  1017  1020  1023     9 
 1018  1017  1020  1021     9 
 1018  1017  1020  1022     9 
 1018  1017  1020  1023     9 
 1019  1017  1020  1021     9 
 1019  1017  1020  1022     9 
 1019  1017  1020  1023     9 
 1017  1020  1023  1024     9 
 1017  1020  1023  1025     9 
 1017  1020  1023  1026     9 
 1021  1020  1023  1024     9 
 1021  1020  1023  1025     9 
 1021  1020  1023  1026     9 
 1022  1020  1023  1024     9 
 1022  1020  1023  1025     9 
 1022  1020  1023  1026     9 
 1020  1023  1026  1027     9 
 1020  1023  1026  1028     9 
 1020  1023  1026  1029     9 
 1024  1023  1026  1027     9 
 1024  1023  1026  1028     9 
 1024  1023  1026  1029     9 
 1025  1023  1026  1027     9 
 1025  1023  1026  1028     9 
 1025  1023  1026  1029     9 
  980  1030  1033  1034     9 
  980  1030  1033  1035     9 
  980  1030  1033  1036     9 
 1031  1030  1033  1034     9 
 1031  1030  1033  1035     9 
 1031  1030  1033  1036     9 
 1032  1030  1033  1034     9 
 1032  1030  1033  1035     9 
 1032  1030  1033  1036     9 
 1030  1033  1036  1037     9 
 1030  1033  1036  1038     9 
 1030  1033  1036  1039     9 
 1034  1033  1036  1037     9 
 1034  1033  1036  1038     9 
 1034  1033  1036  1039     9 
 1035  1033  1036  1037     9 
 1035  1033  1036  1038     9 
 1035  1033  1036  1039     9 
 1033  1036  1039  1040     9 
 1033  1036  1039  1041     9 
 1033  1036  1039  1042     9 
 1037  1036  1039  1040     9 
 1037  1036  1039  1041     9 
 1037  1036  1039  1042     9 
 1038  1036  1039  1040     9 
 1038  1036  1039  1041     9 
 1038  1036  1039  1042     9 
 1036  1039  1042  1043     9 
 1036  1039  1042  1044     9 
 1036  1039  1042  1045     9 
 1040  1039  1042  1043     9 
 1040  1039  1042  1044     9 
 1040  1039  1042  1045     9 
 1041  1039  1042  1043     9 
 1041  1039  1042  1044     9 
 1041  1039  1042  1045     9 
 1039  1042  1045  1046     9 
 1039  1042  1045  1047     9 
 1039  1042  1045  1048     9 
 1043  1042  1045  1046     9 
 1043  1042  1045  1047     9 
 1043  1042  1045  1048     9 
 1044  1042  1045  1046     9 
 1044  1042  1045  1047     9 
 1044  1042  1045  1048     9 
 1042  1045  1048  1049     9 
 1042  1045  1048  1050     9 
 1042  1045  1048  1051     9 
 1046  1045  1048  1049     9 
 1046  1045  1048  1050     9 
 1046  1045  1048  1051     9 
 1047  1045  1048  1049     9 
 1047  1045  1048  1050     9 
 1047  1045  1048  1051     9 
 1045  1048  1051  1052     9 
 1045  1048  1051  1053     9 
 1045  1048  1051  1054     9 
 1049  1048  1051  1052     9 
 1049  1048  1051  1053     9 
 1049  1048  1051  1054     9 
 1050  1048  1051  1052     9 
 1050  1048  1051  1053     9 
 1050  1048  1051  1054     9 
 1048  1051  1054  1055     9 
 1048  1051  1054  1056     9 
 1048  1051  1054  1057     9 
 1052  1051  1054  1055     9 
 1052  1051  1054  1056     9 
 1052  1051  1054  1057     9 
 1053  1051  1054  1055     9 
 1053  1051  1054  1056     9 
 1053  1051  1054  1057     9 
 1051  1054  1057  1058     9 
 1051  1054  1057  1059     9 
 1051  1054  1057  1060     9 
 1055  1054  1057  1058     9 
 1055  1054  1057  1059     9 
 1055  1054  1057  1060     9 
 1056  1054  1057  1058     9 
 1056  1054  1057  1059     9 
 1056  1054  1057  1060     9 
 1054  1057  1060  1061     9 
 1054  1057  1060  1062     9 
 1054  1057  1060  1063     9 
 1058  1057  1060  1061     9 
 1058  1057  1060  1062     9 
 1058  1057  1060  1063     9 
 1059  1057  1060  1061     9 
 1059  1057  1060  1062     9 
 1059  1057  1060  1063     9 
 1057  1060  1063  1064     9 
 1057  1060  1063  1065     9 
 1057  1060  1063  1066     9 
 1061  1060  1063  1064     9 
 1061  1060  1063  1065     9 
 1061  1060  1063  1066     9 
 1062  1060  1063  1064     9 
 1062  1060  1063  1065     9 
 1062  1060  1063  1066     9 
 1060  1063  1066  1067     9 
 1060  1063  1066  1068     9 
 1060  1063  1066  1069     9 
 1064  1063  1066  1067     9 
 1064  1063  1066  1068     9 
 1064  1063  1066  1069     9 
 1065  1063  1066  1067     9 
 1065  1063  1066  1068     9 
 1065  1063  1066  1069     9 
 1063  1066  1069  1070     9 
 1063  1066  1069  1071     9 
 1063  1066  1069  1072     9 
 1067  1066  1069  1070     9 
 1067  1066  1069  1071     9 
 1067  1066  1069  1072     9 
 1068  1066  1069  1070     9 
 1068  1066  1069  1071     9 
 1068  1066  1069  1072     9 
 1077  1073  1074  1075     9 
 1077  1073  1074  1076     9 
 1077  1073  1074  1089     9 
 1081  1073  1074  1075     9 
 1081  1073  1074  1076     9 
 1081  1073  1074  1089     9 
 1085  1073  1074  1075     9 
 1085  1073  1074  1076     9 
 1085  1073  1074  1089     9 
 1074  1073  1077  1078     9 
 1074  1073  1077  1079     9 
 1074  1073  1077  1080     9 
 1081  1073  1077  1078     9 
 1081  1073  1077  1079     9 
 1081  1073  1077  1080     9 
 1085  1073  1077  1078     9 
 1085  1073  1077  1079     9 
 1085  1073  1077  1080     9 
 1074  1073  1081  1082     9 
 1074  1073  1081  1083     9 
 1074  1073  1081  1084     9 
 1077  1073  1081  1082     9 
 1077  1073  1081  1083     9 
 1077  1073  1081  1084     9 
 1085  1073  1081  1082     9 
 1085  1073  1081  1083     9 
 1085  1073  1081  1084     9 
 1074  1073  1085  1086     9 
 1074  1073  1085  1087     9 
 1074  1073  1085  1088     9 
 1077  1073  1085  1086     9 
 1077  1073  1085  1087     9 
 1077  1073  1085  1088     9 
 1081  1073  1085  1086     9 
 1081  1073  1085  1087     9 
 1081  1073  1085  1088     9 
 1073  1074  1089  1090     9 
 1073  1074  1089  1091     9 
 1073  1074  1089  1095     9 
 1075  1074  1089  1090     9 
 1075  1074  1089  1091     9 
 1075  1074  1089  1095     9 
 1076  1074  1089  1090     9 
 1076  1074  1089  1091     9 
 1076  1074  1089  1095     9 
 1074  1089  1095  1092     9 
 1090  1089  1095  1092     9 
 1091  1089  1095  1092     9 
 1093  1092  1095  1089     9 
 1094  1092  1095  1089     9 
 1096  1092  1095  1089     9 
 1093  1092  1096  1097     9 
 1094  1092  1096  1097     9 
 1095  1092  1096  1097     9 
 1092  1096  1097  1098     9 
 1092  1096  1097  1099     9 
 1092  1096  1097  1100     9 
 1096  1097  1100  1101     9 
 1096  1097  1100  1102     9 
 1096  1097  1100  1108     9 
 1098  1097  1100  1101     9 
 1098  1097  1100  1102     9 
 1098  1097  1100  1108     9 
 1099  1097  1100  1101     9 
 1099  1097  1100  1102     9 
 1099  1097  1100  1108     9 
 1097  1100  1102  1103     9 
 1101  1100  1102  1103     9 
 1108  1100  1102  1103     9 
 1097  1100  1108  1109     9 
 1097  1100  1108  1110     9 
 1097  1100  1108  1111     9 
 1101  1100  1108  1109     9 
 1101  1100  1108  1110     9 
 1101  1100  1108  1111     9 
 1102  1100  1108  1109     9 
 1102  1100  1108  1110     9 
 1102  1100  1108  1111     9 
 1100  1102  1103  1104     9 
 1100  1102  1103  1105     9 
 1102  1103  1105  1106     9 
 1102  1103  1105  1107     9 
 1102  1103  1105  1117     9 
 1104  1103  1105  1106     9 
 1104  1103  1105  1107     9 
 1104  1103  1105  1117     9 
 1103  1105  1117  1118     9 
 1103  1105  1117  1119     9 
 1103  1105  1117  1120     9 
 1106  1105  1117  1118     9 
 1106  1105  1117  1119     9 
 1106  1105  1117  1120     9 
 1107  1105  1117  1118     9 
 1107  1105  1117  1119     9 
 1107  1105  1117  1120     9 
 1100  1108  1111  1112     9 
 1109  1108  1111  1112     9 
 1110  1108  1111  1112     9 
 1108  1111  1112  1113     9 
 1108  1111  1112  1114     9 
 1111  1112  1114  1115     9 
 1111  1112  1114  1116     9 
 1111  1112  1114  1164     9 
 1113  1112  1114  1115     9 
 1113  1112  1114  1116     9 
 1113  1112  1114  1164     9 
 1112  1114  1164  1165     9 
 1112  1114  1164  1166     9 
 1112  1114  1164  1167     9 
 1115  1114  1164  1165     9 
 1115  1114  1164  1166     9 
 1115  1114  1164  1167     9 
 1116  1114  1164  1165     9 
 1116  1114  1164  1166     9 
 1116  1114  1164  1167     9 
 1105  1117  1120  1121     9 
 1105  1117  1120  1122     9 
 1105  1117  1120  1123     9 
 1118  1117  1120  1121     9 
 1118  1117  1120  1122     9 
 1118  1117  1120  1123     9 
 1119  1117  1120  1121     9 
 1119  1117  1120  1122     9 
 1119  1117  1120  1123     9 
 1117  1120  1123  1124     9 
 1117  1120  1123  1125     9 
 1117  1120  1123  1126     9 
 1121  1120  1123  1124     9 
 1121  1120  1123  1125     9 
 1121  1120  1123  1126     9 
 1122  1120  1123  1124     9 
 1122  1120  1123  1125     9 
 1122  1120  1123  1126     9 
 1120  1123  1126  1127     9 
 1120  1123  1126  1128     9 
 1120  1123  1126  1129     9 
 1124  1123  1126  1127     9 
 1124  1123  1126  1128     9 
 1124  1123  1126  1129     9 
 1125  1123  1126  1127     9 
 1125  1123  1126  1128     9 
 1125  1123  1126  1129     9 
 1123  1126  1129  1130     9 
 1123  1126  1129  1131     9 
 1123  1126  1129  1132     9 
 1127  1126  1129  1130     9 
 1127  1126  1129  1131     9 
 1127  1126  1129  1132     9 
 1128  1126  1129  1130     9 
 1128  1126  1129  1131     9 
 1128  1126  1129  1132     9 
 1126  1129  1132  1133     9 
 1126  1129  1132  1134     9 
 1126  1129  1132  1135     9 
 1130  1129  1132  1133     9 
 1130  1129  1132  1134     9 
 1130  1129  1132  1135     9 
 1131  1129  1132  1133     9 
 1131  1129  1132  1134     9 
 1131  1129  1132  1135     9 
 1129  1132  1135  1136     9 
 1129  1132  1135  1137     9 
 1133  1132  1135  1136     9 
 1133  1132  1135  1137     9 
 1134  1132  1135  1136     9 
 1134  1132  1135  1137     9 
 1132  1135  1137  1138     9 
 1132  1135  1137  1139     9 
 1136  1135  1137  1138     9 
 1136  1135  1137  1139     9 
 1135  1137  1139  1140     9 
 1135  1137  1139  1141     9 
 1135  1137  1139  1142     9 
 1138  1137  1139  1140     9 
 1138  1137  1139  1141     9 
 1138  1137  1139  1142     9 
 1137  1139  1142  1143     9 
 1137  1139  1142  1144     9 
 1137  1139  1142  1145     9 
 1140  1139  1142  1143     9 
 1140  1139  1142  1144     9 
 1140  1139  1142  1145     9 
 1141  1139  1142  1143     9 
 1141  1139  1142  1144     9 
 1141  1139  1142  1145     9 
 1139  1142  1145  1146     9 
 1139  1142  1145  1147     9 
 1139  1142  1145  1148     9 
 1143  1142  1145  1146     9 
 1143  1142  1145  1147     9 
 1143  1142  1145  1148     9 
 1144  1142  1145  1146     9 
 1144  1142  1145  1147     9 
 1144  1142  1145  1148     9 
 1142  1145  1148  1149     9 
 1142  1145  1148  1150     9 
 1142  1145  1148  1151     9 
 1146  1145  1148  1149     9 
 1146  1145  1148  1150     9 
 1146  1145  1148  1151     9 
 1147  1145  1148  1149     9 
 1147  1145  1148  1150     9 
 1147  1145  1148  1151     9 
 1145  1148  1151  1152     9 
 1145  1148  1151  1153     9 
 1145  1148  1151  1154     9 
 1149  1148  1151  1152     9 
 1149  1148  1151  1153     9 
 1149  1148  1151  1154     9 
 1150  1148  1151  1152     9 
 1150  1148  1151  1153     9 
 1150  1148  1151  1154     9 
 1148  1151  1154  1155     9 
 1148  1151  1154  1156     9 
 1148  1151  1154  1157     9 
 1152  1151  1154  1155     9 
 1152  1151  1154  1156     9 
 1152  1151  1154  1157     9 
 1153  1151  1154  1155     9 
 1153  1151  1154  1156     9 
 1153  1151  1154  1157     9 
 1151  1154  1157  1158     9 
 1151  1154  1157  1159     9 
 1151  1154  1157  1160     9 
 1155  1154  1157  1158     9 
 1155  1154  1157  1159     9 
 1155  1154  1157  1160     9 
 1156  1154  1157  1158     9 
 1156  1154  1157  1159     9 
 1156  1154  1157  1160     9 
 1154  1157  1160  1161     9 
 1154  1157  1160  1162     9 
 1154  1157  1160  1163     9 
 1158  1157  1160  1161     9 
 1158  1157  1160  1162     9 
 1158  1157  1160  1163     9 
 1159  1157  1160  1161     9 
 1159  1157  1160  1162     9 
 1159  1157  1160  1163     9 
 1114  1164  1167  1168     9 
 1114  1164  1167  1169     9 
 1114  1164  1167  1170     9 
 1165  1164  1167  1168     9 
 1165  1164  1167  1169     9 
 1165  1164  1167  1170     9 
 1166  1164  1167  1168     9 
 1166  1164  1167  1169     9 
 1166  1164  1167  1170     9 
 1164  1167  1170  1171     9 
 1164  1167  1170  1172     9 
 1164  1167  1170  1173     9 
 1168  1167  1170  1171     9 
 1168  1167  1170  1172     9 
 1168  1167  1170  1173     9 
 1169  1167  1170  1171     9 
 1169  1167  1170  1172     9 
 1169  1167  1170  1173     9 
 1167  1170  1173  1174     9 
 1167  1170  1173  1175     9 
 1167  1170  1173  1176     9 
 1171  1170  1173  1174     9 
 1171  1170  1173  1175     9 
 1171  1170  1173  1176     9 
 1172  1170  1173  1174     9 
 1172  1170  1173  1175     9 
 1172  1170  1173  1176     9 
 1170  1173  1176  1177     9 
 1170  1173  1176  1178     9 
 1170  1173  1176  1179     9 
 1174  1173  1176  1177     9 
 1174  1173  1176  1178     9 
 1174  1173  1176  1179     9 
 1175  1173  1176  1177     9 
 1175  1173  1176  1178     9 
 1175  1173  1176  1179     9 
 1173  1176  1179  1180     9 
 1173  1176  1179  1181     9 
 1173  1176  1179  1182     9 
 1177  1176  1179  1180     9 
 1177  1176  1179  1181     9 
 1177  1176  1179  1182     9 
 1178  1176  1179  1180     9 
 1178  1176  1179  1181     9 
 1178  1176  1179  1182     9 
 1176  1179  1182  1183     9 
 1176  1179  1182  1184     9 
 1176  1179  1182  1185     9 
 1180  1179  1182  1183     9 
 1180  1179  1182  1184     9 
 1180  1179  1182  1185     9 
 1181  1179  1182  1183     9 
 1181  1179  1182  1184     9 
 1181  1179  1182  1185     9 
 1179  1182  1185  1186     9 
 1179  1182  1185  1187     9 
 1179  1182  1185  1188     9 
 1183  1182  1185  1186     9 
 1183  1182  1185  1187     9 
 1183  1182  1185  1188     9 
 1184  1182  1185  1186     9 
 1184  1182  1185  1187     9 
 1184  1182  1185  1188     9 
 1182  1185  1188  1189     9 
 1182  1185  1188  1190     9 
 1182  1185  1188  1191     9 
 1186  1185  1188  1189     9 
 1186  1185  1188  1190     9 
 1186  1185  1188  1191     9 
 1187  1185  1188  1189     9 
 1187  1185  1188  1190     9 
 1187  1185  1188  1191     9 
 1185  1188  1191  1192     9 
 1185  1188  1191  1193     9 
 1185  1188  1191  1194     9 
 1189  1188  1191  1192     9 
 1189  1188  1191  1193     9 
 1189  1188  1191  1194     9 
 1190  1188  1191  1192     9 
 1190  1188  1191  1193     9 
 1190  1188  1191  1194     9 
 1188  1191  1194  1195     9 
 1188  1191  1194  1196     9 
 1188  1191  1194  1197     9 
 1192  1191  1194  1195     9 
 1192  1191  1194  1196     9 
 1192  1191  1194  1197     9 
 1193  1191  1194  1195     9 
 1193  1191  1194  1196     9 
 1193  1191  1194  1197     9 
 1191  1194  1197  1198     9 
 1191  1194  1197  1199     9 
 1191  1194  1197  1200     9 
 1195  1194  1197  1198     9 
 1195  1194  1197  1199     9 
 1195  1194  1197  1200     9 
 1196  1194  1197  1198     9 
 1196  1194  1197  1199     9 
 1196  1194  1197  1200     9 
 1194  1197  1200  1201     9 
 1194  1197  1200  1202     9 
 1194  1197  1200  1203     9 
 1198  1197  1200  1201     9 
 1198  1197  1200  1202     9 
 1198  1197  1200  1203     9 
 1199  1197  1200  1201     9 
 1199  1197  1200  1202     9 
 1199  1197  1200  1203     9 
 1197  1200  1203  1204     9 
 1197  1200  1203  1205     9 
 1197  1200  1203  1206     9 
 1201  1200  1203  1204     9 
 1201  1200  1203  1205     9 
 1201  1200  1203  1206     9 
 1202  1200  1203  1204     9 
 1202  1200  1203  1205     9 
 1202  1200  1203  1206     9 
 1211  1207  1208  1209     9 
 1211  1207  1208  1210     9 
 1211  1207  1208  1223     9 
 1215  1207  1208  1209     9 
 1215  1207  1208  1210     9 
 1215  1207  1208  1223     9 
 1219  1207  1208  1209     9 
 1219  1207  1208  1210     9 
 1219  1207  1208  1223     9 
 1208  1207  1211  1212     9 
 1208  1207  1211  1213     9 
 1208  1207  1211  1214     9 
 1215  1207  1211  1212     9 
 1215  1207  1211  1213     9 
 1215  1207  1211  1214     9 
 1219  1207  1211  1212     9 
 1219  1207  1211  1213     9 
 1219  1207  1211  1214     9 
 1208  1207  1215  1216     9 
 1208  1207  1215  1217     9 
 1208  1207  1215  1218     9 
 1211  1207  1215  1216     9 
 1211  1207  1215  1217     9 
 1211  1207  1215  1218     9 
 1219  1207  1215  1216     9 
 1219  1207  1215  1217     9 
 1219  1207  1215  1218     9 
 1208  1207  1219  1220     9 
 1208  1207  1219  1221     9 
 1208  1207  1219  1222     9 
 1211  1207  1219  1220     9 
 1211  1207  1219  1221     9 
 1211  1207  1219  1222     9 
 1215  1207  1219  1220     9 
 1215  1207  1219  1221     9 
 1215  1207  1219  1222     9 
 1207  1208  1223  1224     9 
 1207  1208  1223  1225     9 
 1207  1208  1223  1229     9 
 1209  1208  1223  1224     9 
 1209  1208  1223  1225     9 
 1209  1208  1223  1229     9 
 1210  1208  1223  1224     9 
 1210  1208  1223  1225     9 
 1210  1208  1223  1229     9 
 1208  1223  1229  1226     9 
 1224  1223  1229  1226     9 
 1225  1223  1229  1226     9 
 1227  1226  1229  1223     9 
 1228  1226  1229  1223     9 
 1230  1226  1229  1223     9 
 1227  1226  1230  1231     9 
 1228  1226  1230  1231     9 
 1229  1226  1230  1231     9 
 1226  1230  1231  1232     9 
 1226  1230  1231  1233     9 
 1226  1230  1231  1234     9 
 1230  1231  1234  1235     9 
 1230  1231  1234  1236     9 
 1230  1231  1234  1242     9 
 1232  1231  1234  1235     9 
 1232  1231  1234  1236     9 
 1232  1231  1234  1242     9 
 1233  1231  1234  1235     9 
 1233  1231  1234  1236     9 
 1233  1231  1234  1242     9 
 1231  1234  1236  1237     9 
 1235  1234  1236  1237     9 
 1242  1234  1236  1237     9 
 1231  1234  1242  1243     9 
 1231  1234  1242  1244     9 
 1231  1234  1242  1245     9 
 1235  1234  1242  1243     9 
 1235  1234  1242  1244     9 
 1235  1234  1242  1245     9 
 1236  1234  1242  1243     9 
 1236  1234  1242  1244     9 
 1236  1234  1242  1245     9 
 1234  1236  1237  1238     9 
 1234  1236  1237  1239     9 
 1236  1237  1239  1240     9 
 1236  1237  1239  1241     9 
 1236  1237  1239  1251     9 
 1238  1237  1239  1240     9 
 1238  1237  1239  1241     9 
 1238  1237  1239  1251     9 
 1237  1239  1251  1252     9 
 1237  1239  1251  1253     9 
 1237  1239  1251  1254     9 
 1240  1239  1251  1252     9 
 1240  1239  1251  1253     9 
 1240  1239  1251  1254     9 
 1241  1239  1251  1252     9 
 1241  1239  1251  1253     9 
 1241  1239  1251  1254     9 
 1234  1242  1245  1246     9 
 1243  1242  1245  1246     9 
 1244  1242  1245  1246     9 
 1242  1245  1246  1247     9 
 1242  1245  1246  1248     9 
 1245  1246  1248  1249     9 
 1245  1246  1248  1250     9 
 1245  1246  1248  1298     9 
 1247  1246  1248  1249     9 
 1247  1246  1248  1250     9 
 1247  1246  1248  1298     9 
 1246  1248  1298  1299     9 
 1246  1248  1298  1300     9 
 1246  1248  1298  1301     9 
 1249  1248  1298  1299     9 
 1249  1248  1298  1300     9 
 1249  1248  1298  1301     9 
 1250  1248  1298  1299     9 
 1250  1248  1298  1300     9 
 1250  1248  1298  1301     9 
 1239  1251  1254  1255     9 
 1239  1251  1254  1256     9 
 1239  1251  1254  1257     9 
 1252  1251  1254  1255     9 
 1252  1251  1254  1256     9 
 1252  1251  1254  1257     9 
 1253  1251  1254  1255     9 
 1253  1251  1254  1256     9 
 1253  1251  1254  1257     9 
 1251  1254  1257  1258     9 
 1251  1254  1257  1259     9 
 1251  1254  1257  1260     9 
 1255  1254  1257  1258     9 
 1255  1254  1257  1259     9 
 1255  1254  1257  1260     9 
 1256  1254  1257  1258     9 
 1256  1254  1257  1259     9 
 1256  1254  1257  1260     9 
 1254  1257  1260  1261     9 
 1254  1257  1260  1262     9 
 1254  1257  1260  1263     9 
 1258  1257  1260  1261     9 
 1258  1257  1260  1262     9 
 1258  1257  1260  1263     9 
 1259  1257  1260  1261     9 
 1259  1257  1260  1262     9 
 1259  1257  1260  1263     9 
 1257  1260  1263  1264     9 
 1257  1260  1263  1265     9 
 1257  1260  1263  1266     9 
 1261  1260  1263  1264     9 
 1261  1260  1263  1265     9 
 1261  1260  1263  1266     9 
 1262  1260  1263  1264     9 
 1262  1260  1263  1265     9 
 1262  1260  1263  1266     9 
 1260  1263  1266  1267     9 
 1260  1263  1266  1268     9 
 1260  1263  1266  1269     9 
 1264  1263  1266  1267     9 
 1264  1263  1266  1268     9 
 1264  1263  1266  1269     9 
 1265  1263  1266  1267     9 
 1265  1263  1266  1268     9 
 1265  1263  1266  1269     9 
 1263  1266  1269  1270     9 
 1263  1266  1269  1271     9 
 1267  1266  1269  1270     9 
 1267  1266  1269  1271     9 
 1268  1266  1269  1270     9 
 1268  1266  1269  1271     9 
 1266  1269  1271  1272     9 
 1266  1269  1271  1273     9 
 1270  1269  1271  1272     9 
 1270  1269  1271  1273     9 
 1269  1271  1273  1274     9 
 1269  1271  1273  1275     9 
 1269  1271  1273  1276     9 
 1272  1271  1273  1274     9 
 1272  1271  1273  1275     9 
 1272  1271  1273  1276     9 
 1271  1273  1276  1277     9 
 1271  1273  1276  1278     9 
 1271  1273  1276  1279     9 
 1274  1273  1276  1277     9 
 1274  1273  1276  1278     9 
 1274  1273  1276  1279     9 
 1275  1273  1276  1277     9 
 1275  1273  1276  1278     9 
 1275  1273  1276  1279     9 
 1273  1276  1279  1280     9 
 1273  1276  1279  1281     9 
 1273  1276  1279  1282     9 
 1277  1276  1279  1280     9 
 1277  1276  1279  1281     9 
 1277  1276  1279  1282     9 
 1278  1276  1279  1280     9 
 1278  1276  1279  1281     9 
 1278  1276  1279  1282     9 
 1276  1279  1282  1283     9 
 1276  1279  1282  1284     9 
 1276  1279  1282  1285     9 
 1280  1279  1282  1283     9 
 1280  1279  1282  1284     9 
 1280  1279  1282  1285     9 
 1281  1279  1282  1283     9 
 1281  1279  1282  1284     9 
 1281  1279  1282  1285     9 
 1279  1282  1285  1286     9 
 1279  1282  1285  1287     9 
 1279  1282  1285  1288     9 
 1283  1282  1285  1286     9 
 1283  1282  1285  1287     9 
 1283  1282  1285  1288     9 
 1284  1282  1285  1286     9 
 1284  1282  1285  1287     9 
 1284  1282  1285  1288     9 
 1282  1285  1288  1289     9 
 1282  1285  1288  1290     9 
 1282  1285  1288  1291     9 
 1286  1285  1288  1289     9 
 1286  1285  1288  1290     9 
 1286  1285  1288  1291     9 
 1287  1285  1288  1289     9 
 1287  1285  1288  1290     9 
 1287  1285  1288  1291     9 
 1285  1288  1291  1292     9 
 1285  1288  1291  1293     9 
 1285  1288  1291  1294     9 
 1289  1288  1291  1292     9 
 1289  1288  1291  1293     9 
 1289  1288  1291  1294     9 
 1290  1288  1291  1292     9 
 1290  1288  1291  1293     9 
 1290  1288  1291  1294     9 
 1288  1291  1294  1295     9 
 1288  1291  1294  1296     9 
 1288  1291  1294  1297     9 
 1292  1291  1294  1295     9 
 1292  1291  1294  1296     9 
 1292  1291  1294  1297     9 
 1293  1291  1294  1295     9 
 1293  1291  1294  1296     9 
 1293  1291  1294  1297     9 
 1248  1298  1301  1302     9 
 1248  1298  1301  1303     9 
 1248  1298  1301  1304     9 
 1299  1298  1301  1302     9 
 1299  1298  1301  1303     9 
 1299  1298  1301  1304     9 
 1300  1298  1301  1302     9 
 1300  1298  1301  1303     9 
 1300  1298  1301  1304     9 
 1298  1301  1304  1305     9 
 1298  1301  1304  1306     9 
 1298  1301  1304  1307     9 
 1302  1301  1304  1305     9 
 1302  1301  1304  1306     9 
 1302  1301  1304  1307     9 
 1303  1301  1304  1305     9 
 1303  1301  1304  1306     9 
 1303  1301  1304  1307     9 
 1301  1304  1307  1308     9 
 1301  1304  1307  1309     9 
 1301  1304  1307  1310     9 
 1305  1304  1307  1308     9 
 1305  1304  1307  1309     9 
 1305  1304  1307  1310     9 
 1306  1304  1307  1308     9 
 1306  1304  1307  1309     9 
 1306  1304  1307  1310     9 
 1304  1307  1310  1311     9 
 1304  1307  1310  1312     9 
 1304  1307  1310  1313     9 
 1308  1307  1310  1311     9 
 1308  1307  1310  1312     9 
 1308  1307  1310  1313     9 
 1309  1307  1310  1311     9 
 1309  1307  1310  1312     9 
 1309  1307  1310  1313     9 
 1307  1310  1313  1314     9 
 1307  1310  1313  1315     9 
 1307  1310  1313  1316     9 
 1311  1310  1313  1314     9 
 1311  1310  1313  1315     9 
 1311  1310  1313  1316     9 
 1312  1310  1313  1314     9 
 1312  1310  1313  1315     9 
 1312  1310  1313  1316     9 
 1310  1313  1316  1317     9 
 1310  1313  1316  1318     9 
 1310  1313  1316  1319     9 
 1314  1313  1316  1317     9 
 1314  1313  1316  1318     9 
 1314  1313  1316  1319     9 
 1315  1313  1316  1317     9 
 1315  1313  1316  1318     9 
 1315  1313  1316  1319     9 
 1313  1316  1319  1320     9 
 1313  1316  1319  1321     9 
 1313  1316  1319  1322     9 
 1317  1316  1319  1320     9 
 1317  1316  1319  1321     9 
 1317  1316  1319  1322     9 
 1318  1316  1319  1320     9 
 1318  1316  1319  1321     9 
 1318  1316  1319  1322     9 
 1316  1319  1322  1323     9 
 1316  1319  1322  1324     9 
 1316  1319  1322  1325     9 
 1320  1319  1322  1323     9 
 1320  1319  1322  1324     9 
 1320  1319  1322  1325     9 
 1321  1319  1322  1323     9 
 1321  1319  1322  1324     9 
 1321  1319  1322  1325     9 
 1319  1322  1325  1326     9 
 1319  1322  1325  1327     9 
 1319  1322  1325  1328     9 
 1323  1322  1325  1326     9 
 1323  1322  1325  1327     9 
 1323  1322  1325  1328     9 
 1324  1322  1325  1326     9 
 1324  1322  1325  1327     9 
 1324  1322  1325  1328     9 
 1322  1325  1328  1329     9 
 1322  1325  1328  1330     9 
 1322  1325  1328  1331     9 
 1326  1325  1328  1329     9 
 1326  1325  1328  1330     9 
 1326  1325  1328  1331     9 
 1327  1325  1328  1329     9 
 1327  1325  1328  1330     9 
 1327  1325  1328  1331     9 
 1325  1328  1331  1332     9 
 1325  1328  1331  1333     9 
 1325  1328  1331  1334     9 
 1329  1328  1331  1332     9 
 1329  1328  1331  1333     9 
 1329  1328  1331  1334     9 
 1330  1328  1331  1332     9 
 1330  1328  1331  1333     9 
 1330  1328  1331  1334     9 
 1328  1331  1334  1335     9 
 1328  1331  1334  1336     9 
 1328  1331  1334  1337     9 
 1332  1331  1334  1335     9 
 1332  1331  1334  1336     9 
 1332  1331  1334  1337     9 
 1333  1331  1334  1335     9 
 1333  1331  1334  1336     9 
 1333  1331  1334  1337     9 
 1331  1334  1337  1338     9 
 1331  1334  1337  1339     9 
 1331  1334  1337  1340     9 
 1335  1334  1337  1338     9 
 1335  1334  1337  1339     9 
 1335  1334  1337  1340     9 
 1336  1334  1337  1338     9 
 1336  1334  1337  1339     9 
 1336  1334  1337  1340     9 
 1345  1341  1342  1343     9 
 1345  1341  1342  1344     9 
 1345  1341  1342  1357     9 
 1349  1341  1342  1343     9 
 1349  1341  1342  1344     9 
 1349  1341  1342  1357     9 
 1353  1341  1342  1343     9 
 1353  1341  1342  1344     9 
 1353  1341  1342  1357     9 
 1342  1341  1345  1346     9 
 1342  1341  1345  1347     9 
 1342  1341  1345  1348     9 
 1349  1341  1345  1346     9 
 1349  1341  1345  1347     9 
 1349  1341  1345  1348     9 
 1353  1341  1345  1346     9 
 1353  1341  1345  1347     9 
 1353  1341  1345  1348     9 
 1342  1341  1349  1350     9 
 1342  1341  1349  1351     9 
 1342  1341  1349  1352     9 
 1345  1341  1349  1350     9 
 1345  1341  1349  1351     9 
 1345  1341  1349  1352     9 
 1353  1341  1349  1350     9 
 1353  1341  1349  1351     9 
 1353  1341  1349  1352     9 
 1342  1341  1353  1354     9 
 1342  1341  1353  1355     9 
 1342  1341  1353  1356     9 
 1345  1341  1353  1354     9 
 1345  1341  1353  1355     9 
 1345  1341  1353  1356     9 
 1349  1341  1353  1354     9 
 1349  1341  1353  1355     9 
 1349  1341  1353  1356     9 
 1341  1342  1357  1358     9 
 1341  1342  1357  1359     9 
 1341  1342  1357  1363     9 
 1343  1342  1357  1358     9 
 1343  1342  1357  1359     9 
 1343  1342  1357  1363     9 
 1344  1342  1357  1358     9 
 1344  1342  1357  1359     9 
 1344  1342  1357  1363     9 
 1342  1357  1363  1360     9 
 1358  1357  1363  1360     9 
 1359  1357  1363  1360     9 
 1361  1360  1363  1357     9 
 1362  1360  1363  1357     9 
 1364  1360  1363  1357     9 
 1361  1360  1364  1365     9 
 1362  1360  1364  1365     9 
 1363  1360  1364  1365     9 
 1360  1364  1365  1366     9 
 1360  1364  1365  1367     9 
 1360  1364  1365  1368     9 
 1364  1365  1368  1369     9 
 1364  1365  1368  1370     9 
 1364  1365  1368  1376     9 
 1366  1365  1368  1369     9 
 1366  1365  1368  1370     9 
 1366  1365  1368  1376     9 
 1367  1365  1368  1369     9 
 1367  1365  1368  1370     9 
 1367  1365  1368  1376     9 
 1365  1368  1370  1371     9 
 1369  1368  1370  1371     9 
 1376  1368  1370  1371     9 
 1365  1368  1376  1377     9 
 1365  1368  1376  1378     9 
 1365  1368  1376  1379     9 
 1369  1368  1376  1377     9 
 1369  1368  1376  1378     9 
 1369  1368  1376  1379     9 
 1370  1368  1376  1377     9 
 1370  1368  1376  1378     9 
 1370  1368  1376  1379     9 
 1368  1370  1371  1372     9 
 1368  1370  1371  1373     9 
 1370  1371  1373  1374     9 
 1370  1371  1373  1375     9 
 1370  1371  1373  1385     9 
 1372  1371  1373  1374     9 
 1372  1371  1373  1375     9 
 1372  1371  1373  1385     9 
 1371  1373  1385  1386     9 
 1371  1373  1385  1387     9 
 1371  1373  1385  1388     9 
 1374  1373  1385  1386     9 
 1374  1373  1385  1387     9 
 1374  1373  1385  1388     9 
 1375  1373  1385  1386     9 
 1375  1373  1385  1387     9 
 1375  1373  1385  1388     9 
 1368  1376  1379  1380     9 
 1377  1376  1379  1380     9 
 1378  1376  1379  1380     9 
 1376  1379  1380  1381     9 
 1376  1379  1380  1382     9 
 1379  1380  1382  1383     9 
 1379  1380  1382  1384     9 
 1379  1380  1382  1432     9 
 1381  1380  1382  1383     9 
 1381  1380  1382  1384     9 
 1381  1380  1382  1432     9 
 1380  1382  1432  1433     9 
 1380  1382  1432  1434     9 
 1380  1382  1432  1435     9 
 1383  1382  1432  1433     9 
 1383  1382  1432  1434     9 
 1383  1382  1432  1435     9 
 1384  1382  1432  1433     9 
 1384  1382  1432  1434     9 
 1384  1382  1432  1435     9 
 1373  1385  1388  1389     9 
 1373  1385  1388  1390     9 
 1373  1385  1388  1391     9 
 1386  1385  1388  1389     9 
 1386  1385  1388  1390     9 
 1386  1385  1388  1391     9 
 1387  1385  1388  1389     9 
 1387  1385  1388  1390     9 
 1387  1385  1388  1391     9 
 1385  1388  1391  1392     9 
 1385  1388  1391  1393     9 
 1385  1388  1391  1394     9 
 1389  1388  1391  1392     9 
 1389  1388  1391  1393     9 
 1389  1388  1391  1394     9 
 1390  1388  1391  1392     9 
 1390  1388  1391  1393     9 
 1390  1388  1391  1394     9 
 1388  1391  1394  1395     9 
 1388  1391  1394  1396     9 
 1388  1391  1394  1397     9 
 1392  1391  1394  1395     9 
 1392  1391  1394  1396     9 
 1392  1391  1394  1397     9 
 1393  1391  1394  1395     9 
 1393  1391  1394  1396     9 
 1393  1391  1394  1397     9 
 1391  1394  1397  1398     9 
 1391  1394  1397  1399     9 
 1391  1394  1397  1400     9 
 1395  1394  1397  1398     9 
 1395  1394  1397  1399     9 
 1395  1394  1397  1400     9 
 1396  1394  1397  1398     9 
 1396  1394  1397  1399     9 
 1396  1394  1397  1400     9 
 1394  1397  1400  1401     9 
 1394  1397  1400  1402     9 
 1394  1397  1400  1403     9 
 1398  1397  1400  1401     9 
 1398  1397  1400  1402     9 
 1398  1397  1400  1403     9 
 1399  1397  1400  1401     9 
 1399  1397  1400  1402     9 
 1399  1397  1400  1403     9 
 1397  1400  1403  1404     9 
 1397  1400  1403  1405     9 
 1401  1400  1403  1404     9 
 1401  1400  1403  1405     9 
 1402  1400  1403  1404     9 
 1402  1400  1403  1405     9 
 1400  1403  1405  1406     9 
 1400  1403  1405  1407     9 
 1404  1403  1405  1406     9 
 1404  1403  1405  1407     9 
 1403  1405  1407  1408     9 
 1403  1405  1407  1409     9 
 1403  1405  1407  1410     9 
 1406  1405  1407  1408     9 
 1406  1405  1407  1409     9 
 1406  1405  1407  1410     9 
 1405  1407  1410  1411     9 
 1405  1407  1410  1412     9 
 1405  1407  1410  1413     9 
 1408  1407  1410  1411     9 
 1408  1407  1410  1412     9 
 1408  1407  1410  1413     9 
 1409  1407  1410  1411     9 
 1409  1407  1410  1412     9 
 1409  1407  1410  1413     9 
 1407  1410  1413  1414     9 
 1407  1410  1413  1415     9 
 1407  1410  1413  1416     9 
 1411  1410  1413  1414     9 
 1411  1410  1413  1415     9 
 1411  1410  1413  1416     9 
 1412  1410  1413  1414     9 
 1412  1410  1413  1415     9 
 1412  1410  1413  1416     9 
 1410  1413  1416  1417     9 
 1410  1413  1416  1418     9 
 1410  1413  1416  1419     9 
 1414  1413  1416  1417     9 
 1414  1413  1416  1418     9 
 1414  1413  1416  1419     9 
 1415  1413  1416  1417     9 
 1415  1413  1416  1418     9 
 1415  1413  1416  1419     9 
 1413  1416  1419  1420     9 
 1413  1416  1419  1421     9 
 1413  1416  1419  1422     9 
 1417  1416  1419  1420     9 
 1417  1416  1419  1421     9 
 1417  1416  1419  1422     9 
 1418  1416  1419  1420     9 
 1418  1416  1419  1421     9 
 1418  1416  1419  1422     9 
 1416  1419  1422  1423     9 
 1416  1419  1422  1424     9 
 1416  1419  1422  1425     9 
 1420  1419  1422  1423     9 
 1420  1419  1422  1424     9 
 1420  1419  1422  1425     9 
 1421  1419  1422  1423     9 
 1421  1419  1422  1424     9 
 1421  1419  1422  1425     9 
 1419  1422  1425  1426     9 
 1419  1422  1425  1427     9 
 1419  1422  1425  1428     9 
 1423  1422  1425  1426     9 
 1423  1422  1425  1427     9 
 1423  1422  1425  1428     9 
 1424  1422  1425  1426     9 
 1424  1422  1425  1427     9 
 1424  1422  1425  1428     9 
 1422  1425  1428  1429     9 
 1422  1425  1428  1430     9 
 1422  1425  1428  1431     9 
 1426  1425  1428  1429     9 
 1426  1425  1428  1430     9 
 1426  1425  1428  1431     9 
 1427  1425  1428  1429     9 
 1427  1425  1428  1430     9 
 1427  1425  1428  1431     9 
 1382  1432  1435  1436     9 
 1382  1432  1435  1437     9 
 1382  1432  1435  1438     9 
 1433  1432  1435  1436     9 
 1433  1432  1435  1437     9 
 1433  1432  1435  1438     9 
 1434  1432  1435  1436     9 
 1434  1432  1435  1437     9 
 1434  1432  1435  1438     9 
 1432  1435  1438  1439     9 
 1432  1435  1438  1440     9 
 1432  1435  1438  1441     9 
 1436  1435  1438  1439     9 
 1436  1435  1438  1440     9 
 1436  1435  1438  1441     9 
 1437  1435  1438  1439     9 
 1437  1435  1438  1440     9 
 1437  1435  1438  1441     9 
 1435  1438  1441  1442     9 
 1435  1438  1441  1443     9 
 1435  1438  1441  1444     9 
 1439  1438  1441  1442     9 
 1439  1438  1441  1443     9 
 1439  1438  1441  1444     9 
 1440  1438  1441  1442     9 
 1440  1438  1441  1443     9 
 1440  1438  1441  1444     9 
 1438  1441  1444  1445     9 
 1438  1441  1444  1446     9 
 1438  1441  1444  1447     9 
 1442  1441  1444  1445     9 
 1442  1441  1444  1446     9 
 1442  1441  1444  1447     9 
 1443  1441  1444  1445     9 
 1443  1441  1444  1446     9 
 1443  1441  1444  1447     9 
 1441  1444  1447  1448     9 
 1441  1444  1447  1449     9 
 1441  1444  1447  1450     9 
 1445  1444  1447  1448     9 
 1445  1444  1447  1449     9 
 1445  1444  1447  1450     9 
 1446  1444  1447  1448     9 
 1446  1444  1447  1449     9 
 1446  1444  1447  1450     9 
 1444  1447  1450  1451     9 
 1444  1447  1450  1452     9 
 1444  1447  1450  1453     9 
 1448  1447  1450  1451     9 
 1448  1447  1450  1452     9 
 1448  1447  1450  1453     9 
 1449  1447  1450  1451     9 
 1449  1447  1450  1452     9 
 1449  1447  1450  1453     9 
 1447  1450  1453  1454     9 
 1447  1450  1453  1455     9 
 1447  1450  1453  1456     9 
 1451  1450  1453  1454     9 
 1451  1450  1453  1455     9 
 1451  1450  1453  1456     9 
 1452  1450  1453  1454     9 
 1452  1450  1453  1455     9 
 1452  1450  1453  1456     9 
 1450  1453  1456  1457     9 
 1450  1453  1456  1458     9 
 1450  1453  1456  1459     9 
 1454  1453  1456  1457     9 
 1454  1453  1456  1458     9 
 1454  1453  1456  1459     9 
 1455  1453  1456  1457     9 
 1455  1453  1456  1458     9 
 1455  1453  1456  1459     9 
 1453  1456  1459  1460     9 
 1453  1456  1459  1461     9 
 1453  1456  1459  1462     9 
 1457  1456  1459  1460     9 
 1457  1456  1459  1461     9 
 1457  1456  1459  1462     9 
 1458  1456  1459  1460     9 
 1458  1456  1459  1461     9 
 1458  1456  1459  1462     9 
 1456  1459  1462  1463     9 
 1456  1459  1462  1464     9 
 1456  1459  1462  1465     9 
 1460  1459  1462  1463     9 
 1460  1459  1462  1464     9 
 1460  1459  1462  1465     9 
 1461  1459  1462  1463     9 
 1461  1459  1462  1464     9 
 1461  1459  1462  1465     9 
 1459  1462  1465  1466     9 
 1459  1462  1465  1467     9 
 1459  1462  1465  1468     9 
 1463  1462  1465  1466     9 
 1463  1462  1465  1467     9 
 1463  1462  1465  1468     9 
 1464  1462  1465  1466     9 
 1464  1462  1465  1467     9 
 1464  1462  1465  1468     9 
 1462  1465  1468  1469     9 
 1462  1465  1468  1470     9 
 1462  1465  1468  1471     9 
 1466  1465  1468  1469     9 
 1466  1465  1468  1470     9 
 1466  1465  1468  1471     9 
 1467  1465  1468  1469     9 
 1467  1465  1468  1470     9 
 1467  1465  1468  1471     9 
 1465  1468  1471  1472     9 
 1465  1468  1471  1473     9 
 1465  1468  1471  1474     9 
 1469  1468  1471  1472     9 
 1469  1468  1471  1473     9 
 1469  1468  1471  1474     9 
 1470  1468  1471  1472     9 
 1470  1468  1471  1473     9 
 1470  1468  1471  1474     9 
 1479  1475  1476  1477     9 
 1479  1475  1476  1478     9 
 1479  1475  1476  1491     9 
 1483  1475  1476  1477     9 
 1483  1475  1476  1478     9 
 1483  1475  1476  1491     9 
 1487  1475  1476  1477     9 
 1487  1475  1476  1478     9 
 1487  1475  1476  1491     9 
 1476  1475  1479  1480     9 
 1476  1475  1479  1481     9 
 1476  1475  1479  1482     9 
 1483  1475  1479  1480     9 
 1483  1475  1479  1481     9 
 1483  1475  1479  1482     9 
 1487  1475  1479  1480     9 
 1487  1475  1479  1481     9 
 1487  1475  1479  1482     9 
 1476  1475  1483  1484     9 
 1476  1475  1483  1485     9 
 1476  1475  1483  1486     9 
 1479  1475  1483  1484     9 
 1479  1475  1483  1485     9 
 1479  1475  1483  1486     9 
 1487  1475  1483  1484     9 
 1487  1475  1483  1485     9 
 1487  1475  1483  1486     9 
 1476  1475  1487  1488     9 
 1476  1475  1487  1489     9 
 1476  1475  1487  1490     9 
 1479  1475  1487  1488     9 
 1479  1475  1487  1489     9 
 1479  1475  1487  1490     9 
 1483  1475  1487  1488     9 
 1483  1475  1487  1489     9 
 1483  1475  1487  1490     9 
 1475  1476  1491  1492     9 
 1475  1476  1491  1493     9 
 1475  1476  1491  1497     9 
 1477  1476  1491  1492     9 
 1477  1476  1491  1493     9 
 1477  1476  1491  1497     9 
 1478  1476  1491  1492     9 
 1478  1476  1491  1493     9 
 1478  1476  1491  1497     9 
 1476  1491  1497  1494     9 
 1492  1491  1497  1494     9 
 1493  1491  1497  1494     9 
 1495  1494  1497  1491     9 
 1496  1494  1497  1491     9 
 1498  1494  1497  1491     9 
 1495  1494  1498  1499     9 
 1496  1494  1498  1499     9 
 1497  1494  1498  1499     9 
 1494  1498  1499  1500     9 
 1494  1498  1499  1501     9 
 1494  1498  1499  1502     9 
 1498  1499  1502  1503     9 
 1498  1499  1502  1504     9 
 1498  1499  1502  1510     9 
 1500  1499  1502  1503     9 
 1500  1499  1502  1504     9 
 1500  1499  1502  1510     9 
 1501  1499  1502  1503     9 
 1501  1499  1502  1504     9 
 1501  1499  1502  1510     9 
 1499  1502  1504  1505     9 
 1503  1502  1504  1505     9 
 1510  1502  1504  1505     9 
 1499  1502  1510  1511     9 
 1499  1502  1510  1512     9 
 1499  1502  1510  1513     9 
 1503  1502  1510  1511     9 
 1503  1502  1510  1512     9 
 1503  1502  1510  1513     9 
 1504  1502  1510  1511     9 
 1504  1502  1510  1512     9 
 1504  1502  1510  1513     9 
 1502  1504  1505  1506     9 
 1502  1504  1505  1507     9 
 1504  1505  1507  1508     9 
 1504  1505  1507  1509     9 
 1504  1505  1507  1519     9 
 1506  1505  1507  1508     9 
 1506  1505  1507  1509     9 
 1506  1505  1507  1519     9 
 1505  1507  1519  1520     9 
 1505  1507  1519  1521     9 
 1505  1507  1519  1522     9 
 1508  1507  1519  1520     9 
 1508  1507  1519  1521     9 
 1508  1507  1519  1522     9 
 1509  1507  1519  1520     9 
 1509  1507  1519  1521     9 
 1509  1507  1519  1522     9 
 1502  1510  1513  1514     9 
 1511  1510  1513  1514     9 
 1512  1510  1513  1514     9 
 1510  1513  1514  1515     9 
 1510  1513  1514  1516     9 
 1513  1514  1516  1517     9 
 1513  1514  1516  1518     9 
 1513  1514  1516  1566     9 
 1515  1514  1516  1517     9 
 1515  1514  1516  1518     9 
 1515  1514  1516  1566     9 
 1514  1516  1566  1567     9 
 1514  1516  1566  1568     9 
 1514  1516  1566  1569     9 
 1517  1516  1566  1567     9 
 1517  1516  1566  1568     9 
 1517  1516  1566  1569     9 
 1518  1516  1566  1567     9 
 1518  1516  1566  1568     9 
 1518  1516  1566  1569     9 
 1507  1519  1522  1523     9 
 1507  1519  1522  1524     9 
 1507  1519  1522  1525     9 
 1520  1519  1522  1523     9 
 1520  1519  1522  1524     9 
 1520  1519  1522  1525     9 
 1521  1519  1522  1523     9 
 1521  1519  1522  1524     9 
 1521  1519  1522  1525     9 
 1519  1522  1525  1526     9 
 1519  1522  1525  1527     9 
 1519  1522  1525  1528     9 
 1523  1522  1525  1526     9 
 1523  1522  1525  1527     9 
 1523  1522  1525  1528     9 
 1524  1522  1525  1526     9 
 1524  1522  1525  1527     9 
 1524  1522  1525  1528     9 
 1522  1525  1528  1529     9 
 1522  1525  1528  1530     9 
 1522  1525  1528  1531     9 
 1526  1525  1528  1529     9 
 1526  1525  1528  1530     9 
 1526  1525  1528  1531     9 
 1527  1525  1528  1529     9 
 1527  1525  1528  1530     9 
 1527  1525  1528  1531     9 
 1525  1528  1531  1532     9 
 1525  1528  1531  1533     9 
 1525  1528  1531  1534     9 
 1529  1528  1531  1532     9 
 1529  1528  1531  1533     9 
 1529  1528  1531  1534     9 
 1530  1528  1531  1532     9 
 1530  1528  1531  1533     9 
 1530  1528  1531  1534     9 
 1528  1531  1534  1535     9 
 1528  1531  1534  1536     9 
 1528  1531  1534  1537     9 
 1532  1531  1534  1535     9 
 1532  1531  1534  1536     9 
 1532  1531  1534  1537     9 
 1533  1531  1534  1535     9 
 1533  1531  1534  1536     9 
 1533  1531  1534  1537     9 
 1531  1534  1537  1538     9 
 1531  1534  1537  1539     9 
 1535  1534  1537  1538     9 
 1535  1534  1537  1539     9 
 1536  1534  1537  1538     9 
 1536  1534  1537  1539     9 
 1534  1537  1539  1540     9 
 1534  1537  1539  1541     9 
 1538  1537  1539  1540     9 
 1538  1537  1539  1541     9 
 1537  1539  1541  1542     9 
 1537  1539  1541  1543     9 
 1537  1539  1541  1544     9 
 1540  1539  1541  1542     9 
 1540  1539  1541  1543     9 
 1540  1539  1541  1544     9 
 1539  1541  1544  1545     9 
 1539  1541  1544  1546     9 
 1539  1541  1544  1547     9 
 1542  1541  1544  1545     9 
 1542  1541  1544  1546     9 
 1542  1541  1544  1547     9 
 1543  1541  1544  1545     9 
 1543  1541  1544  1546     9 
 1543  1541  1544  1547     9 
 1541  1544  1547  1548     9 
 1541  1544  1547  1549     9 
 1541  1544  1547  1550     9 
 1545  1544  1547  1548     9 
 1545  1544  1547  1549     9 
 1545  1544  1547  1550     9 
 1546  1544  1547  1548     9 
 1546  1544  1547  1549     9 
 1546  1544  1547  1550     9 
 1544  1547  1550  1551     9 
 1544  1547  1550  1552     9 
 1544  1547  1550  1553     9 
 1548  1547  1550  1551     9 
 1548  1547  1550  1552     9 
 1548  1547  1550  1553     9 
 1549  1547  1550  1551     9 
 1549  1547  1550  1552     9 
 1549  1547  1550  1553     9 
 1547  1550  1553  1554     9 
 1547  1550  1553  1555     9 
 1547  1550  1553  1556     9 
 1551  1550  1553  1554     9 
 1551  1550  1553  1555     9 
 1551  1550  1553  1556     9 
 1552  1550  1553  1554     9 
 1552  1550  1553  1555     9 
 1552  1550  1553  1556     9 
 1550  1553  1556  1557     9 
 1550  1553  1556  1558     9 
 1550  1553  1556  1559     9 
 1554  1553  1556  1557     9 
 1554  1553  1556  1558     9 
 1554  1553  1556  1559     9 
 1555  1553  1556  1557     9 
 1555  1553  1556  1558     9 
 1555  1553  1556  1559     9 
 1553  1556  1559  1560     9 
 1553  1556  1559  1561     9 
 1553  1556  1559  1562     9 
 1557  1556  1559  1560     9 
 1557  1556  1559  1561     9 
 1557  1556  1559  1562     9 
 1558  1556  1559  1560     9 
 1558  1556  1559  1561     9 
 1558  1556  1559  1562     9 
 1556  1559  1562  1563     9 
 1556  1559  1562  1564     9 
 1556  1559  1562  1565     9 
 1560  1559  1562  1563     9 
 1560  1559  1562  1564     9 
 1560  1559  1562  1565     9 
 1561  1559  1562  1563     9 
 1561  1559  1562  1564     9 
 1561  1559  1562  1565     9 
 1516  1566  1569  1570     9 
 1516  1566  1569  1571     9 
 1516  1566  1569  1572     9 
 1567  1566  1569  1570     9 
 1567  1566  1569  1571     9 
 1567  1566  1569  1572     9 
 1568  1566  1569  1570     9 
 1568  1566  1569  1571     9 
 1568  1566  1569  1572     9 
 1566  1569  1572  1573     9 
 1566  1569  1572  1574     9 
 1566  1569  1572  1575     9 
 1570  1569  1572  1573     9 
 1570  1569  1572  1574     9 
 1570  1569  1572  1575     9 
 1571  1569  1572  1573     9 
 1571  1569  1572  1574     9 
 1571  1569  1572  1575     9 
 1569  1572  1575  1576     9 
 1569  1572  1575  1577     9 
 1569  1572  1575  1578     9 
 1573  1572  1575  1576     9 
 1573  1572  1575  1577     9 
 1573  1572  1575  1578     9 
 1574  1572  1575  1576     9 
 1574  1572  1575  1577     9 
 1574  1572  1575  1578     9 
 1572  1575  1578  1579     9 
 1572  1575  1578  1580     9 
 1572  1575  1578  1581     9 
 1576  1575  1578  1579     9 
 1576  1575  1578  1580     9 
 1576  1575  1578  1581     9 
 1577  1575  1578  1579     9 
 1577  1575  1578  1580     9 
 1577  1575  1578  1581     9 
 1575  1578  1581  1582     9 
 1575  1578  1581  1583     9 
 1575  1578  1581  1584     9 
 1579  1578  1581  1582     9 
 1579  1578  1581  1583     9 
 1579  1578  1581  1584     9 
 1580  1578  1581  1582     9 
 1580  1578  1581  1583     9 
 1580  1578  1581  1584     9 
 1578  1581  1584  1585     9 
 1578  1581  1584  1586     9 
 1578  1581  1584  1587     9 
 1582  1581  1584  1585     9 
 1582  1581  1584  1586     9 
 1582  1581  1584  1587     9 
 1583  1581  1584  1585     9 
 1583  1581  1584  1586     9 
 1583  1581  1584  1587     9 
 1581  1584  1587  1588     9 
 1581  1584  1587  1589     9 
 1581  1584  1587  1590     9 
 1585  1584  1587  1588     9 
 1585  1584  1587  1589     9 
 1585  1584  1587  1590     9 
 1586  1584  1587  1588     9 
 1586  1584  1587  1589     9 
 1586  1584  1587  1590     9 
 1584  1587  1590  1591     9 
 1584  1587  1590  1592     9 
 1584  1587  1590  1593     9 
 1588  1587  1590  1591     9 
 1588  1587  1590  1592     9 
 1588  1587  1590  1593     9 
 1589  1587  1590  1591     9 
 1589  1587  1590  1592     9 
 1589  1587  1590  1593     9 
 1587  1590  1593  1594     9 
 1587  1590  1593  1595     9 
 1587  1590  1593  1596     9 
 1591  1590  1593  1594     9 
 1591  1590  1593  1595     9 
 1591  1590  1593  1596     9 
 1592  1590  1593  1594     9 
 1592  1590  1593  1595     9 
 1592  1590  1593  1596     9 
 1590  1593  1596  1597     9 
 1590  1593  1596  1598     9 
 1590  1593  1596  1599     9 
 1594  1593  1596  1597     9 
 1594  1593  1596  1598     9 
 1594  1593  1596  1599     9 
 1595  1593  1596  1597     9 
 1595  1593  1596  1598     9 
 1595  1593  1596  1599     9 
 1593  1596  1599  1600     9 
 1593  1596  1599  1601     9 
 1593  1596  1599  1602     9 
 1597  1596  1599  1600     9 
 1597  1596  1599  1601     9 
 1597  1596  1599  1602     9 
 1598  1596  1599  1600     9 
 1598  1596  1599  1601     9 
 1598  1596  1599  1602     9 
 1596  1599  1602  1603     9 
 1596  1599  1602  1604     9 
 1596  1599  1602  1605     9 
 1600  1599  1602  1603     9 
 1600  1599  1602  1604     9 
 1600  1599  1602  1605     9 
 1601  1599  1602  1603     9 
 1601  1599  1602  1604     9 
 1601  1599  1602  1605     9 
 1599  1602  1605  1606     9 
 1599  1602  1605  1607     9 
 1599  1602  1605  1608     9 
 1603  1602  1605  1606     9 
 1603  1602  1605  1607     9 
 1603  1602  1605  1608     9 
 1604  1602  1605  1606     9 
 1604  1602  1605  1607     9 
 1604  1602  1605  1608     9 
 1613  1609  1610  1611     9 
 1613  1609  1610  1612     9 
 1613  1609  1610  1625     9 
 1617  1609  1610  1611     9 
 1617  1609  1610  1612     9 
 1617  1609  1610  1625     9 
 1621  1609  1610  1611     9 
 1621  1609  1610  1612     9 
 1621  1609  1610  1625     9 
 1610  1609  1613  1614     9 
 1610  1609  1613  1615     9 
 1610  1609  1613  1616     9 
 1617  1609  1613  1614     9 
 1617  1609  1613  1615     9 
 1617  1609  1613  1616     9 
 1621  1609  1613  1614     9 
 1621  1609  1613  1615     9 
 1621  1609  1613  1616     9 
 1610  1609  1617  1618     9 
 1610  1609  1617  1619     9 
 1610  1609  1617  1620     9 
 1613  1609  1617  1618     9 
 1613  1609  1617  1619     9 
 1613  1609  1617  1620     9 
 1621  1609  1617  1618     9 
 1621  1609  1617  1619     9 
 1621  1609  1617  1620     9 
 1610  1609  1621  1622     9 
 1610  1609  1621  1623     9 
 1610  1609  1621  1624     9 
 1613  1609  1621  1622     9 
 1613  1609  1621  1623     9 
 1613  1609  1621  1624     9 
 1617  1609  1621  1622     9 
 1617  1609  1621  1623     9 
 1617  1609  1621  1624     9 
 1609  1610  1625  1626     9 
 1609  1610  1625  1627     9 
 1609  1610  1625  1631     9 
 1611  1610  1625  1626     9 
 1611  1610  1625  1627     9 
 1611  1610  1625  1631     9 
 1612  1610  1625  1626     9 
 1612  1610  1625  1627     9 
 1612  1610  1625  1631     9 
 1610  1625  1631  1628     9 
 1626  1625  1631  1628     9 
 1627  1625  1631  1628     9 
 1629  1628  1631  1625     9 
 1630  1628  1631  1625     9 
 1632  1628  1631  1625     9 
 1629  1628  1632  1633     9 
 1630  1628  1632  1633     9 
 1631  1628  1632  1633     9 
 1628  1632  1633  1634     9 
 1628  1632  1633  1635     9 
 1628  1632  1633  1636     9 
 1632  1633  1636  1637     9 
 1632  1633  1636  1638     9 
 1632  1633  1636  1644     9 
 1634  1633  1636  1637     9 
 1634  1633  1636  1638     9 
 1634  1633  1636  1644     9 
 1635  1633  1636  1637     9 
 1635  1633  1636  1638     9 
 1635  1633  1636  1644     9 
 1633  1636  1638  1639     9 
 1637  1636  1638  1639     9 
 1644  1636  1638  1639     9 
 1633  1636  1644  1645     9 
 1633  1636  1644  1646     9 
 1633  1636  1644  1647     9 
 1637  1636  1644  1645     9 
 1637  1636  1644  1646     9 
 1637  1636  1644  1647     9 
 1638  1636  1644  1645     9 
 1638  1636  1644  1646     9 
 1638  1636  1644  1647     9 
 1636  1638  1639  1640     9 
 1636  1638  1639  1641     9 
 1638  1639  1641  1642     9 
 1638  1639  1641  1643     9 
 1638  1639  1641  1653     9 
 1640  1639  1641  1642     9 
 1640  1639  1641  1643     9 
 1640  1639  1641  1653     9 
 1639  1641  1653  1654     9 
 1639  1641  1653  1655     9 
 1639  1641  1653  1656     9 
 1642  1641  1653  1654     9 
 1642  1641  1653  1655     9 
 1642  1641  1653  1656     9 
 1643  1641  1653  1654     9 
 1643  1641  1653  1655     9 
 1643  1641  1653  1656     9 
 1636  1644  1647  1648     9 
 1645  1644  1647  1648     9 
 1646  1644  1647  1648     9 
 1644  1647  1648  1649     9 
 1644  1647  1648  1650     9 
 1647  1648  1650  1651     9 
 1647  1648  1650  1652     9 
 1647  1648  1650  1700     9 
 1649  1648  1650  1651     9 
 1649  1648  1650  1652     9 
 1649  1648  1650  1700     9 
 1648  1650  1700  1701     9 
 1648  1650  1700  1702     9 
 1648  1650  1700  1703     9 
 1651  1650  1700  1701     9 
 1651  1650  1700  1702     9 
 1651  1650  1700  1703     9 
 1652  1650  1700  1701     9 
 1652  1650  1700  1702     9 
 1652  1650  1700  1703     9 
 1641  1653  1656  1657     9 
 1641  1653  1656  1658     9 
 1641  1653  1656  1659     9 
 1654  1653  1656  1657     9 
 1654  1653  1656  1658     9 
 1654  1653  1656  1659     9 
 1655  1653  1656  1657     9 
 1655  1653  1656  1658     9 
 1655  1653  1656  1659     9 
 1653  1656  1659  1660     9 
 1653  1656  1659  1661     9 
 1653  1656  1659  1662     9 
 1657  1656  1659  1660     9 
 1657  1656  1659  1661     9 
 1657  1656  1659  1662     9 
 1658  1656  1659  1660     9 
 1658  1656  1659  1661     9 
 1658  1656  1659  1662     9 
 1656  1659  1662  1663     9 
 1656  1659  1662  1664     9 
 1656  1659  1662  1665     9 
 1660  1659  1662  1663     9 
 1660  1659  1662  1664     9 
 1660  1659  1662  1665     9 
 1661  1659  1662  1663     9 
 1661  1659  1662  1664     9 
 1661  1659  1662  1665     9 
 1659  1662  1665  1666     9 
 1659  1662  1665  1667     9 
 1659  1662  1665  1668     9 
 1663  1662  1665  1666     9 
 1663  1662  1665  1667     9 
 1663  1662  1665  1668     9 
 1664  1662  1665  1666     9 
 1664  1662  1665  1667     9 
 1664  1662  1665  1668     9 
 1662  1665  1668  1669     9 
 1662  1665  1668  1670     9 
 1662  1665  1668  1671     9 
 1666  1665  1668  1669     9 
 1666  1665  1668  1670     9 
 1666  1665  1668  1671     9 
 1667  1665  1668  1669     9 
 1667  1665  1668  1670     9 
 1667  1665  1668  1671     9 
 1665  1668  1671  1672     9 
 1665  1668  1671  1673     9 
 1669  1668  1671  1672     9 
 1669  1668  1671  1673     9 
 1670  1668  1671  1672     9 
 1670  1668  1671  1673     9 
 1668  1671  1673  1674     9 
 1668  1671  1673  1675     9 
 1672  1671  1673  1674     9 
 1672  1671  1673  1675     9 
 1671  1673  1675  1676     9 
 1671  1673  1675  1677     9 
 1671  1673  1675  1678     9 
 1674  1673  1675  1676     9 
 1674  1673  1675  1677     9 
 1674  1673  1675  1678     9 
 1673  1675  1678  1679     9 
 1673  1675  1678  1680     9 
 1673  1675  1678  1681     9 
 1676  1675  1678  1679     9 
 1676  1675  1678  1680     9 
 1676  1675  1678  1681     9 
 1677  1675  1678  1679     9 
 1677  1675  1678  1680     9 
 1677  1675  1678  1681     9 
 1675  1678  1681  1682     9 
 1675  1678  1681  1683     9 
 1675  1678  1681  1684     9 
 1679  1678  1681  1682     9 
 1679  1678  1681  1683     9 
 1679  1678  1681  1684     9 
 1680  1678  1681  1682     9 
 1680  1678  1681  1683     9 
 1680  1678  1681  1684     9 
 1678  1681  1684  1685     9 
 1678  1681  1684  1686     9 
 1678  1681  1684  1687     9 
 1682  1681  1684  1685     9 
 1682  1681  1684  1686     9 
 1682  1681  1684  1687     9 
 1683  1681  1684  1685     9 
 1683  1681  1684  1686     9 
 1683  1681  1684  1687     9 
 1681  1684  1687  1688     9 
 1681  1684  1687  1689     9 
 1681  1684  1687  1690     9 
 1685  1684  1687  1688     9 
 1685  1684  1687  1689     9 
 1685  1684  1687  1690     9 
 1686  1684  1687  1688     9 
 1686  1684  1687  1689     9 
 1686  1684  1687  1690     9 
 1684  1687  1690  1691     9 
 1684  1687  1690  1692     9 
 1684  1687  1690  1693     9 
 1688  1687  1690  1691     9 
 1688  1687  1690  1692     9 
 1688  1687  1690  1693     9 
 1689  1687  1690  1691     9 
 1689  1687  1690  1692     9 
 1689  1687  1690  1693     9 
 1687  1690  1693  1694     9 
 1687  1690  1693  1695     9 
 1687  1690  1693  1696     9 
 1691  1690  1693  1694     9 
 1691  1690  1693  1695     9 
 1691  1690  1693  1696     9 
 1692  1690  1693  1694     9 
 1692  1690  1693  1695     9 
 1692  1690  1693  1696     9 
 1690  1693  1696  1697     9 
 1690  1693  1696  1698     9 
 1690  1693  1696  1699     9 
 1694  1693  1696  1697     9 
 1694  1693  1696  1698     9 
 1694  1693  1696  1699     9 
 1695  1693  1696  1697     9 
 1695  1693  1696  1698     9 
 1695  1693  1696  1699     9 
 1650  1700  1703  1704     9 
 1650  1700  1703  1705     9 
 1650  1700  1703  1706     9 
 1701  1700  1703  1704     9 
 1701  1700  1703  1705     9 
 1701  1700  1703  1706     9 
 1702  1700  1703  1704     9 
 1702  1700  1703  1705     9 
 1702  1700  1703  1706     9 
 1700  1703  1706  1707     9 
 1700  1703  1706  1708     9 
 1700  1703  1706  1709     9 
 1704  1703  1706  1707     9 
 1704  1703  1706  1708     9 
 1704  1703  1706  1709     9 
 1705  1703  1706  1707     9 
 1705  1703  1706  1708     9 
 1705  1703  1706  1709     9 
 1703  1706  1709  1710     9 
 1703  1706  1709  1711     9 
 1703  1706  1709  1712     9 
 1707  1706  1709  1710     9 
 1707  1706  1709  1711     9 
 1707  1706  1709  1712     9 
 1708  1706  1709  1710     9 
 1708  1706  1709  1711     9 
 1708  1706  1709  1712     9 
 1706  1709  1712  1713     9 
 1706  1709  1712  1714     9 
 1706  1709  1712  1715     9 
 1710  1709  1712  1713     9 
 1710  1709  1712  1714     9 
 1710  1709  1712  1715     9 
 1711  1709  1712  1713     9 
 1711  1709  1712  1714     9 
 1711  1709  1712  1715     9 
 1709  1712  1715  1716     9 
 1709  1712  1715  1717     9 
 1709  1712  1715  1718     9 
 1713  1712  1715  1716     9 
 1713  1712  1715  1717     9 
 1713  1712  1715  1718     9 
 1714  1712  1715  1716     9 
 1714  1712  1715  1717     9 
 1714  1712  1715  1718     9 
 1712  1715  1718  1719     9 
 1712  1715  1718  1720     9 
 1712  1715  1718  1721     9 
 1716  1715  1718  1719     9 
 1716  1715  1718  1720     9 
 1716  1715  1718  1721     9 
 1717  1715  1718  1719     9 
 1717  1715  1718  1720     9 
 1717  1715  1718  1721     9 
 1715  1718  1721  1722     9 
 1715  1718  1721  1723     9 
 1715  1718  1721  1724     9 
 1719  1718  1721  1722     9 
 1719  1718  1721  1723     9 
 1719  1718  1721  1724     9 
 1720  1718  1721  1722     9 
 1720  1718  1721  1723     9 
 1720  1718  1721  1724     9 
 1718  1721  1724  1725     9 
 1718  1721  1724  1726     9 
 1718  1721  1724  1727     9 
 1722  1721  1724  1725     9 
 1722  1721  1724  1726     9 
 1722  1721  1724  1727     9 
 1723  1721  1724  1725     9 
 1723  1721  1724  1726     9 
 1723  1721  1724  1727     9 
 1721  1724  1727  1728     9 
 1721  1724  1727  1729     9 
 1721  1724  1727  1730     9 
 1725  1724  1727  1728     9 
 1725  1724  1727  1729     9 
 1725  1724  1727  1730     9 
 1726  1724  1727  1728     9 
 1726  1724  1727  1729     9 
 1726  1724  1727  1730     9 
 1724  1727  1730  1731     9 
 1724  1727  1730  1732     9 
 1724  1727  1730  1733     9 
 1728  1727  1730  1731     9 
 1728  1727  1730  1732     9 
 1728  1727  1730  1733     9 
 1729  1727  1730  1731     9 
 1729  1727  1730  1732     9 
 1729  1727  1730  1733     9 
 1727  1730  1733  1734     9 
 1727  1730  1733  1735     9 
 1727  1730  1733  1736     9 
 1731  1730  1733  1734     9 
 1731  1730  1733  1735     9 
 1731  1730  1733  1736     9 
 1732  1730  1733  1734     9 
 1732  1730  1733  1735     9 
 1732  1730  1733  1736     9 
 1730  1733  1736  1737     9 
 1730  1733  1736  1738     9 
 1730  1733  1736  1739     9 
 1734  1733  1736  1737     9 
 1734  1733  1736  1738     9 
 1734  1733  1736  1739     9 
 1735  1733  1736  1737     9 
 1735  1733  1736  1738     9 
 1735  1733  1736  1739     9 
 1733  1736  1739  1740     9 
 1733  1736  1739  1741     9 
 1733  1736  1739  1742     9 
 1737  1736  1739  1740     9 
 1737  1736  1739  1741     9 
 1737  1736  1739  1742     9 
 1738  1736  1739  1740     9 
 1738  1736  1739  1741     9 
 1738  1736  1739  1742     9 
 1747  1743  1744  1745     9 
 1747  1743  1744  1746     9 
 1747  1743  1744  1759     9 
 1751  1743  1744  1745     9 
 1751  1743  1744  1746     9 
 1751  1743  1744  1759     9 
 1755  1743  1744  1745     9 
 1755  1743  1744  1746     9 
 1755  1743  1744  1759     9 
 1744  1743  1747  1748     9 
 1744  1743  1747  1749     9 
 1744  1743  1747  1750     9 
 1751  1743  1747  1748     9 
 1751  1743  1747  1749     9 
 1751  1743  1747  1750     9 
 1755  1743  1747  1748     9 
 1755  1743  1747  1749     9 
 1755  1743  1747  1750     9 
 1744  1743  1751  1752     9 
 1744  1743  1751  1753     9 
 1744  1743  1751  1754     9 
 1747  1743  1751  1752     9 
 1747  1743  1751  1753     9 
 1747  1743  1751  1754     9 
 1755  1743  1751  1752     9 
 1755  1743  1751  1753     9 
 1755  1743  1751  1754     9 
 1744  1743  1755  1756     9 
 1744  1743  1755  1757     9 
 1744  1743  1755  1758     9 
 1747  1743  1755  1756     9 
 1747  1743  1755  1757     9 
 1747  1743  1755  1758     9 
 1751  1743  1755  1756     9 
 1751  1743  1755  1757     9 
 1751  1743  1755  1758     9 
 1743  1744  1759  1760     9 
 1743  1744  1759  1761     9 
 1743  1744  1759  1765     9 
 1745  1744  1759  1760     9 
 1745  1744  1759  1761     9 
 1745  1744  1759  1765     9 
 1746  1744  1759  1760     9 
 1746  1744  1759  1761     9 
 1746  1744  1759  1765     9 
 1744  1759  1765  1762     9 
 1760  1759  1765  1762     9 
 1761  1759  1765  1762     9 
 1763  1762  1765  1759     9 
 1764  1762  1765  1759     9 
 1766  1762  1765  1759     9 
 1763  1762  1766  1767     9 
 1764  1762  1766  1767     9 
 1765  1762  1766  1767     9 
 1762  1766  1767  1768     9 
 1762  1766  1767  1769     9 
 1762  1766  1767  1770     9 
 1766  1767  1770  1771     9 
 1766  1767  1770  1772     9 
 1766  1767  1770  1778     9 
 1768  1767  1770  1771     9 
 1768  1767  1770  1772     9 
 1768  1767  1770  1778     9 
 1769  1767  1770  1771     9 
 1769  1767  1770  1772     9 
 1769  1767  1770  1778     9 
 1767  1770  1772  1773     9 
 1771  1770  1772  1773     9 
 1778  1770  1772  1773     9 
 1767  1770  1778  1779     9 
 1767  1770  1778  1780     9 
 1767  1770  1778  1781     9 
 1771  1770  1778  1779     9 
 1771  1770  1778  1780     9 
 1771  1770  1778  1781     9 
 1772  1770  1778  1779     9 
 1772  1770  1778  1780     9 
 1772  1770  1778  1781     9 
 1770  1772  1773  1774     9 
 1770  1772  1773  1775     9 
 1772  1773  1775  1776     9 
 1772  1773  1775  1777     9 
 1772  1773  1775  1787     9 
 1774  1773  1775  1776     9 
 1774  1773  1775  1777     9 
 1774  1773  1775  1787     9 
 1773  1775  1787  1788     9 
 1773  1775  1787  1789     9 
 1773  1775  1787  1790     9 
 1776  1775  1787  1788     9 
 1776  1775  1787  1789     9 
 1776  1775  1787  1790     9 
 1777  1775  1787  1788     9 
 1777  1775  1787  1789     9 
 1777  1775  1787  1790     9 
 1770  1778  1781  1782     9 
 1779  1778  1781  1782     9 
 1780  1778  1781  1782     9 
 1778  1781  1782  1783     9 
 1778  1781  1782  1784     9 
 1781  1782  1784  1785     9 
 1781  1782  1784  1786     9 
 1781  1782  1784  1834     9 
 1783  1782  1784  1785     9 
 1783  1782  1784  1786     9 
 1783  1782  1784  1834     9 
 1782  1784  1834  1835     9 
 1782  1784  1834  1836     9 
 1782  1784  1834  1837     9 
 1785  1784  1834  1835     9 
 1785  1784  1834  1836     9 
 1785  1784  1834  1837     9 
 1786  1784  1834  1835     9 
 1786  1784  1834  1836     9 
 1786  1784  1834  1837     9 
 1775  1787  1790  1791     9 
 1775  1787  1790  1792     9 
 1775  1787  1790  1793     9 
 1788  1787  1790  1791     9 
 1788  1787  1790  1792     9 
 1788  1787  1790  1793     9 
 1789  1787  1790  1791     9 
 1789  1787  1790  1792     9 
 1789  1787  1790  1793     9 
 1787  1790  1793  1794     9 
 1787  1790  1793  1795     9 
 1787  1790  1793  1796     9 
 1791  1790  1793  1794     9 
 1791  1790  1793  1795     9 
 1791  1790  1793  1796     9 
 1792  1790  1793  1794     9 
 1792  1790  1793  1795     9 
 1792  1790  1793  1796     9 
 1790  1793  1796  1797     9 
 1790  1793  1796  1798     9 
 1790  1793  1796  1799     9 
 1794  1793  1796  1797     9 
 1794  1793  1796  1798     9 
 1794  1793  1796  1799     9 
 1795  1793  1796  1797     9 
 1795  1793  1796  1798     9 
 1795  1793  1796  1799     9 
 1793  1796  1799  1800     9 
 1793  1796  1799  1801     9 
 1793  1796  1799  1802     9 
 1797  1796  1799  1800     9 
 1797  1796  1799  1801     9 
 1797  1796  1799  1802     9 
 1798  1796  1799  1800     9 
 1798  1796  1799  1801     9 
 1798  1796  1799  1802     9 
 1796  1799  1802  1803     9 
 1796  1799  1802  1804     9 
 1796  1799  1802  1805     9 
 1800  1799  1802  1803     9 
 1800  1799  1802  1804     9 
 1800  1799  1802  1805     9 
 1801  1799  1802  1803     9 
 1801  1799  1802  1804     9 
 1801  1799  1802  1805     9 
 1799  1802  1805  1806     9 
 1799  1802  1805  1807     9 
 1803  1802  1805  1806     9 
 1803  1802  1805  1807     9 
 1804  1802  1805  1806     9 
 1804  1802  1805  1807     9 
 1802  1805  1807  1808     9 
 1802  1805  1807  1809     9 
 1806  1805  1807  1808     9 
 1806  1805  1807  1809     9 
 1805  1807  1809  1810     9 
 1805  1807  1809  1811     9 
 1805  1807  1809  1812     9 
 1808  1807  1809  1810     9 
 1808  1807  1809  1811     9 
 1808  1807  1809  1812     9 
 1807  1809  1812  1813     9 
 1807  1809  1812  1814     9 
 1807  1809  1812  1815     9 
 1810  1809  1812  1813     9 
 1810  1809  1812  1814     9 
 1810  1809  1812  1815     9 
 1811  1809  1812  1813     9 
 1811  1809  1812  1814     9 
 1811  1809  1812  1815     9 
 1809  1812  1815  1816     9 
 1809  1812  1815  1817     9 
 1809  1812  1815  1818     9 
 1813  1812  1815  1816     9 
 1813  1812  1815  1817     9 
 1813  1812  1815  1818     9 
 1814  1812  1815  1816     9 
 1814  1812  1815  1817     9 
 1814  1812  1815  1818     9 
 1812  1815  1818  1819     9 
 1812  1815  1818  1820     9 
 1812  1815  1818  1821     9 
 1816  1815  1818  1819     9 
 1816  1815  1818  1820     9 
 1816  1815  1818  1821     9 
 1817  1815  1818  1819     9 
 1817  1815  1818  1820     9 
 1817  1815  1818  1821     9 
 1815  1818  1821  1822     9 
 1815  1818  1821  1823     9 
 1815  1818  1821  1824     9 
 1819  1818  1821  1822     9 
 1819  1818  1821  1823     9 
 1819  1818  1821  1824     9 
 1820  1818  1821  1822     9 
 1820  1818  1821  1823     9 
 1820  1818  1821  1824     9 
 1818  1821  1824  1825     9 
 1818  1821  1824  1826     9 
 1818  1821  1824  1827     9 
 1822  1821  1824  1825     9 
 1822  1821  1824  1826     9 
 1822  1821  1824  1827     9 
 1823  1821  1824  1825     9 
 1823  1821  1824  1826     9 
 1823  1821  1824  1827     9 
 1821  1824  1827  1828     9 
 1821  1824  1827  1829     9 
 1821  1824  1827  1830     9 
 1825  1824  1827  1828     9 
 1825  1824  1827  1829     9 
 1825  1824  1827  1830     9 
 1826  1824  1827  1828     9 
 1826  1824  1827  1829     9 
 1826  1824  1827  1830     9 
 1824  1827  1830  1831     9 
 1824  1827  1830  1832     9 
 1824  1827  1830  1833     9 
 1828  1827  1830  1831     9 
 1828  1827  1830  1832     9 
 1828  1827  1830  1833     9 
 1829  1827  1830  1831     9 
 1829  1827  1830  1832     9 
 1829  1827  1830  1833     9 
 1784  1834  1837  1838     9 
 1784  1834  1837  1839     9 
 1784  1834  1837  1840     9 
 1835  1834  1837  1838     9 
 1835  1834  1837  1839     9 
 1835  1834  1837  1840     9 
 1836  1834  1837  1838     9 
 1836  1834  1837  1839     9 
 1836  1834  1837  1840     9 
 1834  1837  1840  1841     9 
 1834  1837  1840  1842     9 
 1834  1837  1840  1843     9 
 1838  1837  1840  1841     9 
 1838  1837  1840  1842     9 
 1838  1837  1840  1843     9 
 1839  1837  1840  1841     9 
 1839  1837  1840  1842     9 
 1839  1837  1840  1843     9 
 1837  1840  1843  1844     9 
 1837  1840  1843  1845     9 
 1837  1840  1843  1846     9 
 1841  1840  1843  1844     9 
 1841  1840  1843  1845     9 
 1841  1840  1843  1846     9 
 1842  1840  1843  1844     9 
 1842  1840  1843  1845     9 
 1842  1840  1843  1846     9 
 1840  1843  1846  1847     9 
 1840  1843  1846  1848     9 
 1840  1843  1846  1849     9 
 1844  1843  1846  1847     9 
 1844  1843  1846  1848     9 
 1844  1843  1846  1849     9 
 1845  1843  1846  1847     9 
 1845  1843  1846  1848     9 
 1845  1843  1846  1849     9 
 1843  1846  1849  1850     9 
 1843  1846  1849  1851     9 
 1843  1846  1849  1852     9 
 1847  1846  1849  1850     9 
 1847  1846  1849  1851     9 
 1847  1846  1849  1852     9 
 1848  1846  1849  1850     9 
 1848  1846  1849  1851     9 
 1848  1846  1849  1852     9 
 1846  1849  1852  1853     9 
 1846  1849  1852  1854     9 
 1846  1849  1852  1855     9 
 1850  1849  1852  1853     9 
 1850  1849  1852  1854     9 
 1850  1849  1852  1855     9 
 1851  1849  1852  1853     9 
 1851  1849  1852  1854     9 
 1851  1849  1852  1855     9 
 1849  1852  1855  1856     9 
 1849  1852  1855  1857     9 
 1849  1852  1855  1858     9 
 1853  1852  1855  1856     9 
 1853  1852  1855  1857     9 
 1853  1852  1855  1858     9 
 1854  1852  1855  1856     9 
 1854  1852  1855  1857     9 
 1854  1852  1855  1858     9 
 1852  1855  1858  1859     9 
 1852  1855  1858  1860     9 
 1852  1855  1858  1861     9 
 1856  1855  1858  1859     9 
 1856  1855  1858  1860     9 
 1856  1855  1858  1861     9 
 1857  1855  1858  1859     9 
 1857  1855  1858  1860     9 
 1857  1855  1858  1861     9 
 1855  1858  1861  1862     9 
 1855  1858  1861  1863     9 
 1855  1858  1861  1864     9 
 1859  1858  1861  1862     9 
 1859  1858  1861  1863     9 
 1859  1858  1861  1864     9 
 1860  1858  1861  1862     9 
 1860  1858  1861  1863     9 
 1860  1858  1861  1864     9 
 1858  1861  1864  1865     9 
 1858  1861  1864  1866     9 
 1858  1861  1864  1867     9 
 1862  1861  1864  1865     9 
 1862  1861  1864  1866     9 
 1862  1861  1864  1867     9 
 1863  1861  1864  1865     9 
 1863  1861  1864  1866     9 
 1863  1861  1864  1867     9 
 1861  1864  1867  1868     9 
 1861  1864  1867  1869     9 
 1861  1864  1867  1870     9 
 1865  1864  1867  1868     9 
 1865  1864  1867  1869     9 
 1865  1864  1867  1870     9 
 1866  1864  1867  1868     9 
 1866  1864  1867  1869     9 
 1866  1864  1867  1870     9 
 1864  1867  1870  1871     9 
 1864  1867  1870  1872     9 
 1864  1867  1870  1873     9 
 1868  1867  1870  1871     9 
 1868  1867  1870  1872     9 
 1868  1867  1870  1873     9 
 1869  1867  1870  1871     9 
 1869  1867  1870  1872     9 
 1869  1867  1870  1873     9 
 1867  1870  1873  1874     9 
 1867  1870  1873  1875     9 
 1867  1870  1873  1876     9 
 1871  1870  1873  1874     9 
 1871  1870  1873  1875     9 
 1871  1870  1873  1876     9 
 1872  1870  1873  1874     9 
 1872  1870  1873  1875     9 
 1872  1870  1873  1876     9 
 1881  1877  1878  1879     9 
 1881  1877  1878  1880     9 
 1881  1877  1878  1893     9 
 1885  1877  1878  1879     9 
 1885  1877  1878  1880     9 
 1885  1877  1878  1893     9 
 1889  1877  1878  1879     9 
 1889  1877  1878  1880     9 
 1889  1877  1878  1893     9 
 1878  1877  1881  1882     9 
 1878  1877  1881  1883     9 
 1878  1877  1881  1884     9 
 1885  1877  1881  1882     9 
 1885  1877  1881  1883     9 
 1885  1877  1881  1884     9 
 1889  1877  1881  1882     9 
 1889  1877  1881  1883     9 
 1889  1877  1881  1884     9 
 1878  1877  1885  1886     9 
 1878  1877  1885  1887     9 
 1878  1877  1885  1888     9 
 1881  1877  1885  1886     9 
 1881  1877  1885  1887     9 
 1881  1877  1885  1888     9 
 1889  1877  1885  1886     9 
 1889  1877  1885  1887     9 
 1889  1877  1885  1888     9 
 1878  1877  1889  1890     9 
 1878  1877  1889  1891     9 
 1878  1877  1889  1892     9 
 1881  1877  1889  1890     9 
 1881  1877  1889  1891     9 
 1881  1877  1889  1892     9 
 1885  1877  1889  1890     9 
 1885  1877  1889  1891     9 
 1885  1877  1889  1892     9 
 1877  1878  1893  1894     9 
 1877  1878  1893  1895     9 
 1877  1878  1893  1899     9 
 1879  1878  1893  1894     9 
 1879  1878  1893  1895     9 
 1879  1878  1893  1899     9 
 1880  1878  1893  1894     9 
 1880  1878  1893  1895     9 
 1880  1878  1893  1899     9 
 1878  1893  1899  1896     9 
 1894  1893  1899  1896     9 
 1895  1893  1899  1896     9 
 1897  1896  1899  1893     9 
 1898  1896  1899  1893     9 
 1900  1896  1899  1893     9 
 1897  1896  1900  1901     9 
 1898  1896  1900  1901     9 
 1899  1896  1900  1901     9 
 1896  1900  1901  1902     9 
 1896  1900  1901  1903     9 
 1896  1900  1901  1904     9 
 1900  1901  1904  1905     9 
 1900  1901  1904  1906     9 
 1900  1901  1904  1912     9 
 1902  1901  1904  1905     9 
 1902  1901  1904  1906     9 
 1902  1901  1904  1912     9 
 1903  1901  1904  1905     9 
 1903  1901  1904  1906     9 
 1903  1901  1904  1912     9 
 1901  1904  1906  1907     9 
 1905  1904  1906  1907     9 
 1912  1904  1906  1907     9 
 1901  1904  1912  1913     9 
 1901  1904  1912  1914     9 
 1901  1904  1912  1915     9 
 1905  1904  1912  1913     9 
 1905  1904  1912  1914     9 
 1905  1904  1912  1915     9 
 1906  1904  1912  1913     9 
 1906  1904  1912  1914     9 
 1906  1904  1912  1915     9 
 1904  1906  1907  1908     9 
 1904  1906  1907  1909     9 
 1906  1907  1909  1910     9 
 1906  1907  1909  1911     9 
 1906  1907  1909  1921     9 
 1908  1907  1909  1910     9 
 1908  1907  1909  1911     9 
 1908  1907  1909  1921     9 
 1907  1909  1921  1922     9 
 1907  1909  1921  1923     9 
 1907  1909  1921  1924     9 
 1910  1909  1921  1922     9 
 1910  1909  1921  1923     9 
 1910  1909  1921  1924     9 
 1911  1909  1921  1922     9 
 1911  1909  1921  1923     9 
 1911  1909  1921  1924     9 
 1904  1912  1915  1916     9 
 1913  1912  1915  1916     9 
 1914  1912  1915  1916     9 
 1912  1915  1916  1917     9 
 1912  1915  1916  1918     9 
 1915  1916  1918  1919     9 
 1915  1916  1918  1920     9 
 1915  1916  1918  1968     9 
 1917  1916  1918  1919     9 
 1917  1916  1918  1920     9 
 1917  1916  1918  1968     9 
 1916  1918  1968  1969     9 
 1916  1918  1968  1970     9 
 1916  1918  1968  1971     9 
 1919  1918  1968  1969     9 
 1919  1918  1968  1970     9 
 1919  1918  1968  1971     9 
 1920  1918  1968  1969     9 
 1920  1918  1968  1970     9 
 1920  1918  1968  1971     9 
 1909  1921  1924  1925     9 
 1909  1921  1924  1926     9 
 1909  1921  1924  1927     9 
 1922  1921  1924  1925     9 
 1922  1921  1924  1926     9 
 1922  1921  1924  1927     9 
 1923  1921  1924  1925     9 
 1923  1921  1924  1926     9 
 1923  1921  1924  1927     9 
 1921  1924  1927  1928     9 
 1921  1924  1927  1929     9 
 1921  1924  1927  1930     9 
 1925  1924  1927  1928     9 
 1925  1924  1927  1929     9 
 1925  1924  1927  1930     9 
 1926  1924  1927  1928     9 
 1926  1924  1927  1929     9 
 1926  1924  1927  1930     9 
 1924  1927  1930  1931     9 
 1924  1927  1930  1932     9 
 1924  1927  1930  1933     9 
 1928  1927  1930  1931     9 
 1928  1927  1930  1932     9 
 1928  1927  1930  1933     9 
 1929  1927  1930  1931     9 
 1929  1927  1930  1932     9 
 1929  1927  1930  1933     9 
 1927  1930  1933  1934     9 
 1927  1930  1933  1935     9 
 1927  1930  1933  1936     9 
 1931  1930  1933  1934     9 
 1931  1930  1933  1935     9 
 1931  1930  1933  1936     9 
 1932  1930  1933  1934     9 
 1932  1930  1933  1935     9 
 1932  1930  1933  1936     9 
 1930  1933  1936  1937     9 
 1930  1933  1936  1938     9 
 1930  1933  1936  1939     9 
 1934  1933  1936  1937     9 
 1934  1933  1936  1938     9 
 1934  1933  1936  1939     9 
 1935  1933  1936  1937     9 
 1935  1933  1936  1938     9 
 1935  1933  1936  1939     9 
 1933  1936  1939  1940     9 
 1933  1936  1939  1941     9 
 1937  1936  1939  1940     9 
 1937  1936  1939  1941     9 
 1938  1936  1939  1940     9 
 1938  1936  1939  1941     9 
 1936  1939  1941  1942     9 
 1936  1939  1941  1943     9 
 1940  1939  1941  1942     9 
 1940  1939  1941  1943     9 
 1939  1941  1943  1944     9 
 1939  1941  1943  1945     9 
 1939  1941  1943  1946     9 
 1942  1941  1943  1944     9 
 1942  1941  1943  1945     9 
 1942  1941  1943  1946     9 
 1941  1943  1946  1947     9 
 1941  1943  1946  1948     9 
 1941  1943  1946  1949     9 
 1944  1943  1946  1947     9 
 1944  1943  1946  1948     9 
 1944  1943  1946  1949     9 
 1945  1943  1946  1947     9 
 1945  1943  1946  1948     9 
 1945  1943  1946  1949     9 
 1943  1946  1949  1950     9 
 1943  1946  1949  1951     9 
 1943  1946  1949  1952     9 
 1947  1946  1949  1950     9 
 1947  1946  1949  1951     9 
 1947  1946  1949  1952     9 
 1948  1946  1949  1950     9 
 1948  1946  1949  1951     9 
 1948  1946  1949  1952     9 
 1946  1949  1952  1953     9 
 1946  1949  1952  1954     9 
 1946  1949  1952  1955     9 
 1950  1949  1952  1953     9 
 1950  1949  1952  1954     9 
 1950  1949  1952  1955     9 
 1951  1949  1952  1953     9 
 1951  1949  1952  1954     9 
 1951  1949  1952  1955     9 
 1949  1952  1955  1956     9 
 1949  1952  1955  1957     9 
 1949  1952  1955  1958     9 
 1953  1952  1955  1956     9 
 1953  1952  1955  1957     9 
 1953  1952  1955  1958     9 
 1954  1952  1955  1956     9 
 1954  1952  1955  1957     9 
 1954  1952  1955  1958     9 
 1952  1955  1958  1959     9 
 1952  1955  1958  1960     9 
 1952  1955  1958  1961     9 
 1956  1955  1958  1959     9 
 1956  1955  1958  1960     9 
 1956  1955  1958  1961     9 
 1957  1955  1958  1959     9 
 1957  1955  1958  1960     9 
 1957  1955  1958  1961     9 
 1955  1958  1961  1962     9 
 1955  1958  1961  1963     9 
 1955  1958  1961  1964     9 
 1959  1958  1961  1962     9 
 1959  1958  1961  1963     9 
 1959  1958  1961  1964     9 
 1960  1958  1961  1962     9 
 1960  1958  1961  1963     9 
 1960  1958  1961  1964     9 
 1958  1961  1964  1965     9 
 1958  1961  1964  1966     9 
 1958  1961  1964  1967     9 
 1962  1961  1964  1965     9 
 1962  1961  1964  1966     9 
 1962  1961  1964  1967     9 
 1963  1961  1964  1965     9 
 1963  1961  1964  1966     9 
 1963  1961  1964  1967     9 
 1918  1968  1971  1972     9 
 1918  1968  1971  1973     9 
 1918  1968  1971  1974     9 
 1969  1968  1971  1972     9 
 1969  1968  1971  1973     9 
 1969  1968  1971  1974     9 
 1970  1968  1971  1972     9 
 1970  1968  1971  1973     9 
 1970  1968  1971  1974     9 
 1968  1971  1974  1975     9 
 1968  1971  1974  1976     9 
 1968  1971  1974  1977     9 
 1972  1971  1974  1975     9 
 1972  1971  1974  1976     9 
 1972  1971  1974  1977     9 
 1973  1971  1974  1975     9 
 1973  1971  1974  1976     9 
 1973  1971  1974  1977     9 
 1971  1974  1977  1978     9 
 1971  1974  1977  1979     9 
 1971  1974  1977  1980     9 
 1975  1974  1977  1978     9 
 1975  1974  1977  1979     9 
 1975  1974  1977  1980     9 
 1976  1974  1977  1978     9 
 1976  1974  1977  1979     9 
 1976  1974  1977  1980     9 
 1974  1977  1980  1981     9 
 1974  1977  1980  1982     9 
 1974  1977  1980  1983     9 
 1978  1977  1980  1981     9 
 1978  1977  1980  1982     9 
 1978  1977  1980  1983     9 
 1979  1977  1980  1981     9 
 1979  1977  1980  1982     9 
 1979  1977  1980  1983     9 
 1977  1980  1983  1984     9 
 1977  1980  1983  1985     9 
 1977  1980  1983  1986     9 
 1981  1980  1983  1984     9 
 1981  1980  1983  1985     9 
 1981  1980  1983  1986     9 
 1982  1980  1983  1984     9 
 1982  1980  1983  1985     9 
 1982  1980  1983  1986     9 
 1980  1983  1986  1987     9 
 1980  1983  1986  1988     9 
 1980  1983  1986  1989     9 
 1984  1983  1986  1987     9 
 1984  1983  1986  1988     9 
 1984  1983  1986  1989     9 
 1985  1983  1986  1987     9 
 1985  1983  1986  1988     9 
 1985  1983  1986  1989     9 
 1983  1986  1989  1990     9 
 1983  1986  1989  1991     9 
 1983  1986  1989  1992     9 
 1987  1986  1989  1990     9 
 1987  1986  1989  1991     9 
 1987  1986  1989  1992     9 
 1988  1986  1989  1990     9 
 1988  1986  1989  1991     9 
 1988  1986  1989  1992     9 
 1986  1989  1992  1993     9 
 1986  1989  1992  1994     9 
 1986  1989  1992  1995     9 
 1990  1989  1992  1993     9 
 1990  1989  1992  1994     9 
 1990  1989  1992  1995     9 
 1991  1989  1992  1993     9 
 1991  1989  1992  1994     9 
 1991  1989  1992  1995     9 
 1989  1992  1995  1996     9 
 1989  1992  1995  1997     9 
 1989  1992  1995  1998     9 
 1993  1992  1995  1996     9 
 1993  1992  1995  1997     9 
 1993  1992  1995  1998     9 
 1994  1992  1995  1996     9 
 1994  1992  1995  1997     9 
 1994  1992  1995  1998     9 
 1992  1995  1998  1999     9 
 1992  1995  1998  2000     9 
 1992  1995  1998  2001     9 
 1996  1995  1998  1999     9 
 1996  1995  1998  2000     9 
 1996  1995  1998  2001     9 
 1997  1995  1998  1999     9 
 1997  1995  1998  2000     9 
 1997  1995  1998  2001     9 
 1995  1998  2001  2002     9 
 1995  1998  2001  2003     9 
 1995  1998  2001  2004     9 
 1999  1998  2001  2002     9 
 1999  1998  2001  2003     9 
 1999  1998  2001  2004     9 
 2000  1998  2001  2002     9 
 2000  1998  2001  2003     9 
 2000  1998  2001  2004     9 
 1998  2001  2004  2005     9 
 1998  2001  2004  2006     9 
 1998  2001  2004  2007     9 
 2002  2001  2004  2005     9 
 2002  2001  2004  2006     9 
 2002  2001  2004  2007     9 
 2003  2001  2004  2005     9 
 2003  2001  2004  2006     9 
 2003  2001  2004  2007     9 
 2001  2004  2007  2008     9 
 2001  2004  2007  2009     9 
 2001  2004  2007  2010     9 
 2005  2004  2007  2008     9 
 2005  2004  2007  2009     9 
 2005  2004  2007  2010     9 
 2006  2004  2007  2008     9 
 2006  2004  2007  2009     9 
 2006  2004  2007  2010     9 
 2015  2011  2012  2013     9 
 2015  2011  2012  2014     9 
 2015  2011  2012  2027     9 
 2019  2011  2012  2013     9 
 2019  2011  2012  2014     9 
 2019  2011  2012  2027     9 
 2023  2011  2012  2013     9 
 2023  2011  2012  2014     9 
 2023  2011  2012  2027     9 
 2012  2011  2015  2016     9 
 2012  2011  2015  2017     9 
 2012  2011  2015  2018     9 
 2019  2011  2015  2016     9 
 2019  2011  2015  2017     9 
 2019  2011  2015  2018     9 
 2023  2011  2015  2016     9 
 2023  2011  2015  2017     9 
 2023  2011  2015  2018     9 
 2012  2011  2019  2020     9 
 2012  2011  2019  2021     9 
 2012  2011  2019  2022     9 
 2015  2011  2019  2020     9 
 2015  2011  2019  2021     9 
 2015  2011  2019  2022     9 
 2023  2011  2019  2020     9 
 2023  2011  2019  2021     9 
 2023  2011  2019  2022     9 
 2012  2011  2023  2024     9 
 2012  2011  2023  2025     9 
 2012  2011  2023  2026     9 
 2015  2011  2023  2024     9 
 2015  2011  2023  2025     9 
 2015  2011  2023  2026     9 
 2019  2011  2023  2024     9 
 2019  2011  2023  2025     9 
 2019  2011  2023  2026     9 
 2011  2012  2027  2028     9 
 2011  2012  2027  2029     9 
 2011  2012  2027  2033     9 
 2013  2012  2027  2028     9 
 2013  2012  2027  2029     9 
 2013  2012  2027  2033     9 
 2014  2012  2027  2028     9 
 2014  2012  2027  2029     9 
 2014  2012  2027  2033     9 
 2012  2027  2033  2030     9 
 2028  2027  2033  2030     9 
 2029  2027  2033  2030     9 
 2031  2030  2033  2027     9 
 2032  2030  2033  2027     9 
 2034  2030  2033  2027     9 
 2031  2030  2034  2035     9 
 2032  2030  2034  2035     9 
 2033  2030  2034  2035     9 
 2030  2034  2035  2036     9 
 2030  2034  2035  2037     9 
 2030  2034  2035  2038     9 
 2034  2035  2038  2039     9 
 2034  2035  2038  2040     9 
 2034  2035  2038  2046     9 
 2036  2035  2038  2039     9 
 2036  2035  2038  2040     9 
 2036  2035  2038  2046     9 
 2037  2035  2038  2039     9 
 2037  2035  2038  2040     9 
 2037  2035  2038  2046     9 
 2035  2038  2040  2041     9 
 2039  2038  2040  2041     9 
 2046  2038  2040  2041     9 
 2035  2038  2046  2047     9 
 2035  2038  2046  2048     9 
 2035  2038  2046  2049     9 
 2039  2038  2046  2047     9 
 2039  2038  2046  2048     9 
 2039  2038  2046  2049     9 
 2040  2038  2046  2047     9 
 2040  2038  2046  2048     9 
 2040  2038  2046  2049     9 
 2038  2040  2041  2042     9 
 2038  2040  2041  2043     9 
 2040  2041  2043  2044     9 
 2040  2041  2043  2045     9 
 2040  2041  2043  2055     9 
 2042  2041  2043  2044     9 
 2042  2041  2043  2045     9 
 2042  2041  2043  2055     9 
 2041  2043  2055  2056     9 
 2041  2043  2055  2057     9 
 2041  2043  2055  2058     9 
 2044  2043  2055  2056     9 
 2044  2043  2055  2057     9 
 2044  2043  2055  2058     9 
 2045  2043  2055  2056     9 
 2045  2043  2055  2057     9 
 2045  2043  2055  2058     9 
 2038  2046  2049  2050     9 
 2047  2046  2049  2050     9 
 2048  2046  2049  2050     9 
 2046  2049  2050  2051     9 
 2046  2049  2050  2052     9 
 2049  2050  2052  2053     9 
 2049  2050  2052  2054     9 
 2049  2050  2052  2102     9 
 2051  2050  2052  2053     9 
 2051  2050  2052  2054     9 
 2051  2050  2052  2102     9 
 2050  2052  2102  2103     9 
 2050  2052  2102  2104     9 
 2050  2052  2102  2105     9 
 2053  2052  2102  2103     9 
 2053  2052  2102  2104     9 
 2053  2052  2102  2105     9 
 2054  2052  2102  2103     9 
 2054  2052  2102  2104     9 
 2054  2052  2102  2105     9 
 2043  2055  2058  2059     9 
 2043  2055  2058  2060     9 
 2043  2055  2058  2061     9 
 2056  2055  2058  2059     9 
 2056  2055  2058  2060     9 
 2056  2055  2058  2061     9 
 2057  2055  2058  2059     9 
 2057  2055  2058  2060     9 
 2057  2055  2058  2061     9 
 2055  2058  2061  2062     9 
 2055  2058  2061  2063     9 
 2055  2058  2061  2064     9 
 2059  2058  2061  2062     9 
 2059  2058  2061  2063     9 
 2059  2058  2061  2064     9 
 2060  2058  2061  2062     9 
 2060  2058  2061  2063     9 
 2060  2058  2061  2064     9 
 2058  2061  2064  2065     9 
 2058  2061  2064  2066     9 
 2058  2061  2064  2067     9 
 2062  2061  2064  2065     9 
 2062  2061  2064  2066     9 
 2062  2061  2064  2067     9 
 2063  2061  2064  2065     9 
 2063  2061  2064  2066     9 
 2063  2061  2064  2067     9 
 2061  2064  2067  2068     9 
 2061  2064  2067  2069     9 
 2061  2064  2067  2070     9 
 2065  2064  2067  2068     9 
 2065  2064  2067  2069     9 
 2065  2064  2067  2070     9 
 2066  2064  2067  2068     9 
 2066  2064  2067  2069     9 
 2066  2064  2067  2070     9 
 2064  2067  2070  2071     9 
 2064  2067  2070  2072     9 
 2064  2067  2070  2073     9 
 2068  2067  2070  2071     9 
 2068  2067  2070  2072     9 
 2068  2067  2070  2073     9 
 2069  2067  2070  2071     9 
 2069  2067  2070  2072     9 
 2069  2067  2070  2073     9 
 2067  2070  2073  2074     9 
 2067  2070  2073  2075     9 
 2071  2070  2073  2074     9 
 2071  2070  2073  2075     9 
 2072  2070  2073  2074     9 
 2072  2070  2073  2075     9 
 2070  2073  2075  2076     9 
 2070  2073  2075  2077     9 
 2074  2073  2075  2076     9 
 2074  2073  2075  2077     9 
 2073  2075  2077  2078     9 
 2073  2075  2077  2079     9 
 2073  2075  2077  2080     9 
 2076  2075  2077  2078     9 
 2076  2075  2077  2079     9 
 2076  2075  2077  2080     9 
 2075  2077  2080  2081     9 
 2075  2077  2080  2082     9 
 2075  2077  2080  2083     9 
 2078  2077  2080  2081     9 
 2078  2077  2080  2082     9 
 2078  2077  2080  2083     9 
 2079  2077  2080  2081     9 
 2079  2077  2080  2082     9 
 2079  2077  2080  2083     9 
 2077  2080  2083  2084     9 
 2077  2080  2083  2085     9 
 2077  2080  2083  2086     9 
 2081  2080  2083  2084     9 
 2081  2080  2083  2085     9 
 2081  2080  2083  2086     9 
 2082  2080  2083  2084     9 
 2082  2080  2083  2085     9 
 2082  2080  2083  2086     9 
 2080  2083  2086  2087     9 
 2080  2083  2086  2088     9 
 2080  2083  2086  2089     9 
 2084  2083  2086  2087     9 
 2084  2083  2086  2088     9 
 2084  2083  2086  2089     9 
 2085  2083  2086  2087     9 
 2085  2083  2086  2088     9 
 2085  2083  2086  2089     9 
 2083  2086  2089  2090     9 
 2083  2086  2089  2091     9 
 2083  2086  2089  2092     9 
 2087  2086  2089  2090     9 
 2087  2086  2089  2091     9 
 2087  2086  2089  2092     9 
 2088  2086  2089  2090     9 
 2088  2086  2089  2091     9 
 2088  2086  2089  2092     9 
 2086  2089  2092  2093     9 
 2086  2089  2092  2094     9 
 2086  2089  2092  2095     9 
 2090  2089  2092  2093     9 
 2090  2089  2092  2094     9 
 2090  2089  2092  2095     9 
 2091  2089  2092  2093     9 
 2091  2089  2092  2094     9 
 2091  2089  2092  2095     9 
 2089  2092  2095  2096     9 
 2089  2092  2095  2097     9 
 2089  2092  2095  2098     9 
 2093  2092  2095  2096     9 
 2093  2092  2095  2097     9 
 2093  2092  2095  2098     9 
 2094  2092  2095  2096     9 
 2094  2092  2095  2097     9 
 2094  2092  2095  2098     9 
 2092  2095  2098  2099     9 
 2092  2095  2098  2100     9 
 2092  2095  2098  2101     9 
 2096  2095  2098  2099     9 
 2096  2095  2098  2100     9 
 2096  2095  2098  2101     9 
 2097  2095  2098  2099     9 
 2097  2095  2098  2100     9 
 2097  2095  2098  2101     9 
 2052  2102  2105  2106     9 
 2052  2102  2105  2107     9 
 2052  2102  2105  2108     9 
 2103  2102  2105  2106     9 
 2103  2102  2105  2107     9 
 2103  2102  2105  2108     9 
 2104  2102  2105  2106     9 
 2104  2102  2105  2107     9 
 2104  2102  2105  2108     9 
 2102  2105  2108  2109     9 
 2102  2105  2108  2110     9 
 2102  2105  2108  2111     9 
 2106  2105  2108  2109     9 
 2106  2105  2108  2110     9 
 2106  2105  2108  2111     9 
 2107  2105  2108  2109     9 
 2107  2105  2108  2110     9 
 2107  2105  2108  2111     9 
 2105  2108  2111  2112     9 
 2105  2108  2111  2113     9 
 2105  2108  2111  2114     9 
 2109  2108  2111  2112     9 
 2109  2108  2111  2113     9 
 2109  2108  2111  2114     9 
 2110  2108  2111  2112     9 
 2110  2108  2111  2113     9 
 2110  2108  2111  2114     9 
 2108  2111  2114  2115     9 
 2108  2111  2114  2116     9 
 2108  2111  2114  2117     9 
 2112  2111  2114  2115     9 
 2112  2111  2114  2116     9 
 2112  2111  2114  2117     9 
 2113  2111  2114  2115     9 
 2113  2111  2114  2116     9 
 2113  2111  2114  2117     9 
 2111  2114  2117  2118     9 
 2111  2114  2117  2119     9 
 2111  2114  2117  2120     9 
 2115  2114  2117  2118     9 
 2115  2114  2117  2119     9 
 2115  2114  2117  2120     9 
 2116  2114  2117  2118     9 
 2116  2114  2117  2119     9 
 2116  2114  2117  2120     9 
 2114  2117  2120  2121     9 
 2114  2117  2120  2122     9 
 2114  2117  2120  2123     9 
 2118  2117  2120  2121     9 
 2118  2117  2120  2122     9 
 2118  2117  2120  2123     9 
 2119  2117  2120  2121     9 
 2119  2117  2120  2122     9 
 2119  2117  2120  2123     9 
 2117  2120  2123  2124     9 
 2117  2120  2123  2125     9 
 2117  2120  2123  2126     9 
 2121  2120  2123  2124     9 
 2121  2120  2123  2125     9 
 2121  2120  2123  2126     9 
 2122  2120  2123  2124     9 
 2122  2120  2123  2125     9 
 2122  2120  2123  2126     9 
 2120  2123  2126  2127     9 
 2120  2123  2126  2128     9 
 2120  2123  2126  2129     9 
 2124  2123  2126  2127     9 
 2124  2123  2126  2128     9 
 2124  2123  2126  2129     9 
 2125  2123  2126  2127     9 
 2125  2123  2126  2128     9 
 2125  2123  2126  2129     9 
 2123  2126  2129  2130     9 
 2123  2126  2129  2131     9 
 2123  2126  2129  2132     9 
 2127  2126  2129  2130     9 
 2127  2126  2129  2131     9 
 2127  2126  2129  2132     9 
 2128  2126  2129  2130     9 
 2128  2126  2129  2131     9 
 2128  2126  2129  2132     9 
 2126  2129  2132  2133     9 
 2126  2129  2132  2134     9 
 2126  2129  2132  2135     9 
 2130  2129  2132  2133     9 
 2130  2129  2132  2134     9 
 2130  2129  2132  2135     9 
 2131  2129  2132  2133     9 
 2131  2129  2132  2134     9 
 2131  2129  2132  2135     9 
 2129  2132  2135  2136     9 
 2129  2132  2135  2137     9 
 2129  2132  2135  2138     9 
 2133  2132  2135  2136     9 
 2133  2132  2135  2137     9 
 2133  2132  2135  2138     9 
 2134  2132  2135  2136     9 
 2134  2132  2135  2137     9 
 2134  2132  2135  2138     9 
 2132  2135  2138  2139     9 
 2132  2135  2138  2140     9 
 2132  2135  2138  2141     9 
 2136  2135  2138  2139     9 
 2136  2135  2138  2140     9 
 2136  2135  2138  2141     9 
 2137  2135  2138  2139     9 
 2137  2135  2138  2140     9 
 2137  2135  2138  2141     9 
 2135  2138  2141  2142     9 
 2135  2138  2141  2143     9 
 2135  2138  2141  2144     9 
 2139  2138  2141  2142     9 
 2139  2138  2141  2143     9 
 2139  2138  2141  2144     9 
 2140  2138  2141  2142     9 
 2140  2138  2141  2143     9 
 2140  2138  2141  2144     9 
 2149  2145  2146  2147     9 
 2149  2145  2146  2148     9 
 2149  2145  2146  2161     9 
 2153  2145  2146  2147     9 
 2153  2145  2146  2148     9 
 2153  2145  2146  2161     9 
 2157  2145  2146  2147     9 
 2157  2145  2146  2148     9 
 2157  2145  2146  2161     9 
 2146  2145  2149  2150     9 
 2146  2145  2149  2151     9 
 2146  2145  2149  2152     9 
 2153  2145  2149  2150     9 
 2153  2145  2149  2151     9 
 2153  2145  2149  2152     9 
 2157  2145  2149  2150     9 
 2157  2145  2149  2151     9 
 2157  2145  2149  2152     9 
 2146  2145  2153  2154     9 
 2146  2145  2153  2155     9 
 2146  2145  2153  2156     9 
 2149  2145  2153  2154     9 
 2149  2145  2153  2155     9 
 2149  2145  2153  2156     9 
 2157  2145  2153  2154     9 
 2157  2145  2153  2155     9 
 2157  2145  2153  2156     9 
 2146  2145  2157  2158     9 
 2146  2145  2157  2159     9 
 2146  2145  2157  2160     9 
 2149  2145  2157  2158     9 
 2149  2145  2157  2159     9 
 2149  2145  2157  2160     9 
 2153  2145  2157  2158     9 
 2153  2145  2157  2159     9 
 2153  2145  2157  2160     9 
 2145  2146  2161  2162     9 
 2145  2146  2161  2163     9 
 2145  2146  2161  2167     9 
 2147  2146  2161  2162     9 
 2147  2146  2161  2163     9 
 2147  2146  2161  2167     9 
 2148  2146  2161  2162     9 
 2148  2146  2161  2163     9 
 2148  2146  2161  2167     9 
 2146  2161  2167  2164     9 
 2162  2161  2167  2164     9 
 2163  2161  2167  2164     9 
 2165  2164  2167  2161     9 
 2166  2164  2167  2161     9 
 2168  2164  2167  2161     9 
 2165  2164  2168  2169     9 
 2166  2164  2168  2169     9 
 2167  2164  2168  2169     9 
 2164  2168  2169  2170     9 
 2164  2168  2169  2171     9 
 2164  2168  2169  2172     9 
 2168  2169  2172  2173     9 
 2168  2169  2172  2174     9 
 2168  2169  2172  2180     9 
 2170  2169  2172  2173     9 
 2170  2169  2172  2174     9 
 2170  2169  2172  2180     9 
 2171  2169  2172  2173     9 
 2171  2169  2172  2174     9 
 2171  2169  2172  2180     9 
 2169  2172  2174  2175     9 
 2173  2172  2174  2175     9 
 2180  2172  2174  2175     9 
 2169  2172  2180  2181     9 
 2169  2172  2180  2182     9 
 2169  2172  2180  2183     9 
 2173  2172  2180  2181     9 
 2173  2172  2180  2182     9 
 2173  2172  2180  2183     9 
 2174  2172  2180  2181     9 
 2174  2172  2180  2182     9 
 2174  2172  2180  2183     9 
 2172  2174  2175  2176     9 
 2172  2174  2175  2177     9 
 2174  2175  2177  2178     9 
 2174  2175  2177  2179     9 
 2174  2175  2177  2189     9 
 2176  2175  2177  2178     9 
 2176  2175  2177  2179     9 
 2176  2175  2177  2189     9 
 2175  2177  2189  2190     9 
 2175  2177  2189  2191     9 
 2175  2177  2189  2192     9 
 2178  2177  2189  2190     9 
 2178  2177  2189  2191     9 
 2178  2177  2189  2192     9 
 2179  2177  2189  2190     9 
 2179  2177  2189  2191     9 
 2179  2177  2189  2192     9 
 2172  2180  2183  2184     9 
 2181  2180  2183  2184     9 
 2182  2180  2183  2184     9 
 2180  2183  2184  2185     9 
 2180  2183  2184  2186     9 
 2183  2184  2186  2187     9 
 2183  2184  2186  2188     9 
 2183  2184  2186  2236     9 
 2185  2184  2186  2187     9 
 2185  2184  2186  2188     9 
 2185  2184  2186  2236     9 
 2184  2186  2236  2237     9 
 2184  2186  2236  2238     9 
 2184  2186  2236  2239     9 
 2187  2186  2236  2237     9 
 2187  2186  2236  2238     9 
 2187  2186  2236  2239     9 
 2188  2186  2236  2237     9 
 2188  2186  2236  2238     9 
 2188  2186  2236  2239     9 
 2177  2189  2192  2193     9 
 2177  2189  2192  2194     9 
 2177  2189  2192  2195     9 
 2190  2189  2192  2193     9 
 2190  2189  2192  2194     9 
 2190  2189  2192  2195     9 
 2191  2189  2192  2193     9 
 2191  2189  2192  2194     9 
 2191  2189  2192  2195     9 
 2189  2192  2195  2196     9 
 2189  2192  2195  2197     9 
 2189  2192  2195  2198     9 
 2193  2192  2195  2196     9 
 2193  2192  2195  2197     9 
 2193  2192  2195  2198     9 
 2194  2192  2195  2196     9 
 2194  2192  2195  2197     9 
 2194  2192  2195  2198     9 
 2192  2195  2198  2199     9 
 2192  2195  2198  2200     9 
 2192  2195  2198  2201     9 
 2196  2195  2198  2199     9 
 2196  2195  2198  2200     9 
 2196  2195  2198  2201     9 
 2197  2195  2198  2199     9 
 2197  2195  2198  2200     9 
 2197  2195  2198  2201     9 
 2195  2198  2201  2202     9 
 2195  2198  2201  2203     9 
 2195  2198  2201  2204     9 
 2199  2198  2201  2202     9 
 2199  2198  2201  2203     9 
 2199  2198  2201  2204     9 
 2200  2198  2201  2202     9 
 2200  2198  2201  2203     9 
 2200  2198  2201  2204     9 
 2198  2201  2204  2205     9 
 2198  2201  2204  2206     9 
 2198  2201  2204  2207     9 
 2202  2201  2204  2205     9 
 2202  2201  2204  2206     9 
 2202  2201  2204  2207     9 
 2203  2201  2204  2205     9 
 2203  2201  2204  2206     9 
 2203  2201  2204  2207     9 
 2201  2204  2207  2208     9 
 2201  2204  2207  2209     9 
 2205  2204  2207  2208     9 
 2205  2204  2207  2209     9 
 2206  2204  2207  2208     9 
 2206  2204  2207  2209     9 
 2204  2207  2209  2210     9 
 2204  2207  2209  2211     9 
 2208  2207  2209  2210     9 
 2208  2207  2209  2211     9 
 2207  2209  2211  2212     9 
 2207  2209  2211  2213     9 
 2207  2209  2211  2214     9 
 2210  2209  2211  2212     9 
 2210  2209  2211  2213     9 
 2210  2209  2211  2214     9 
 2209  2211  2214  2215     9 
 2209  2211  2214  2216     9 
 2209  2211  2214  2217     9 
 2212  2211  2214  2215     9 
 2212  2211  2214  2216     9 
 2212  2211  2214  2217     9 
 2213  2211  2214  2215     9 
 2213  2211  2214  2216     9 
 2213  2211  2214  2217     9 
 2211  2214  2217  2218     9 
 2211  2214  2217  2219     9 
 2211  2214  2217  2220     9 
 2215  2214  2217  2218     9 
 2215  2214  2217  2219     9 
 2215  2214  2217  2220     9 
 2216  2214  2217  2218     9 
 2216  2214  2217  2219     9 
 2216  2214  2217  2220     9 
 2214  2217  2220  2221     9 
 2214  2217  2220  2222     9 
 2214  2217  2220  2223     9 
 2218  2217  2220  2221     9 
 2218  2217  2220  2222     9 
 2218  2217  2220  2223     9 
 2219  2217  2220  2221     9 
 2219  2217  2220  2222     9 
 2219  2217  2220  2223     9 
 2217  2220  2223  2224     9 
 2217  2220  2223  2225     9 
 2217  2220  2223  2226     9 
 2221  2220  2223  2224     9 
 2221  2220  2223  2225     9 
 2221  2220  2223  2226     9 
 2222  2220  2223  2224     9 
 2222  2220  2223  2225     9 
 2222  2220  2223  2226     9 
 2220  2223  2226  2227     9 
 2220  2223  2226  2228     9 
 2220  2223  2226  2229     9 
 2224  2223  2226  2227     9 
 2224  2223  2226  2228     9 
 2224  2223  2226  2229     9 
 2225  2223  2226  2227     9 
 2225  2223  2226  2228     9 
 2225  2223  2226  2229     9 
 2223  2226  2229  2230     9 
 2223  2226  2229  2231     9 
 2223  2226  2229  2232     9 
 2227  2226  2229  2230     9 
 2227  2226  2229  2231     9 
 2227  2226  2229  2232     9 
 2228  2226  2229  2230     9 
 2228  2226  2229  2231     9 
 2228  2226  2229  2232     9 
 2226  2229  2232  2233     9 
 2226  2229  2232  2234     9 
 2226  2229  2232  2235     9 
 2230  2229  2232  2233     9 
 2230  2229  2232  2234     9 
 2230  2229  2232  2235     9 
 2231  2229  2232  2233     9 
 2231  2229  2232  2234     9 
 2231  2229  2232  2235     9 
 2186  2236  2239  2240     9 
 2186  2236  2239  2241     9 
 2186  2236  2239  2242     9 
 2237  2236  2239  2240     9 
 2237  2236  2239  2241     9 
 2237  2236  2239  2242     9 
 2238  2236  2239  2240     9 
 2238  2236  2239  2241     9 
 2238  2236  2239  2242     9 
 2236  2239  2242  2243     9 
 2236  2239  2242  2244     9 
 2236  2239  2242  2245     9 
 2240  2239  2242  2243     9 
 2240  2239  2242  2244     9 
 2240  2239  2242  2245     9 
 2241  2239  2242  2243     9 
 2241  2239  2242  2244     9 
 2241  2239  2242  2245     9 
 2239  2242  2245  2246     9 
 2239  2242  2245  2247     9 
 2239  2242  2245  2248     9 
 2243  2242  2245  2246     9 
 2243  2242  2245  2247     9 
 2243  2242  2245  2248     9 
 2244  2242  2245  2246     9 
 2244  2242  2245  2247     9 
 2244  2242  2245  2248     9 
 2242  2245  2248  2249     9 
 2242  2245  2248  2250     9 
 2242  2245  2248  2251     9 
 2246  2245  2248  2249     9 
 2246  2245  2248  2250     9 
 2246  2245  2248  2251     9 
 2247  2245  2248  2249     9 
 2247  2245  2248  2250     9 
 2247  2245  2248  2251     9 
 2245  2248  2251  2252     9 
 2245  2248  2251  2253     9 
 2245  2248  2251  2254     9 
 2249  2248  2251  2252     9 
 2249  2248  2251  2253     9 
 2249  2248  2251  2254     9 
 2250  2248  2251  2252     9 
 2250  2248  2251  2253     9 
 2250  2248  2251  2254     9 
 2248  2251  2254  2255     9 
 2248  2251  2254  2256     9 
 2248  2251  2254  2257     9 
 2252  2251  2254  2255     9 
 2252  2251  2254  2256     9 
 2252  2251  2254  2257     9 
 2253  2251  2254  2255     9 
 2253  2251  2254  2256     9 
 2253  2251  2254  2257     9 
 2251  2254  2257  2258     9 
 2251  2254  2257  2259     9 
 2251  2254  2257  2260     9 
 2255  2254  2257  2258     9 
 2255  2254  2257  2259     9 
 2255  2254  2257  2260     9 
 2256  2254  2257  2258     9 
 2256  2254  2257  2259     9 
 2256  2254  2257  2260     9 
 2254  2257  2260  2261     9 
 2254  2257  2260  2262     9 
 2254  2257  2260  2263     9 
 2258  2257  2260  2261     9 
 2258  2257  2260  2262     9 
 2258  2257  2260  2263     9 
 2259  2257  2260  2261     9 
 2259  2257  2260  2262     9 
 2259  2257  2260  2263     9 
 2257  2260  2263  2264     9 
 2257  2260  2263  2265     9 
 2257  2260  2263  2266     9 
 2261  2260  2263  2264     9 
 2261  2260  2263  2265     9 
 2261  2260  2263  2266     9 
 2262  2260  2263  2264     9 
 2262  2260  2263  2265     9 
 2262  2260  2263  2266     9 
 2260  2263  2266  2267     9 
 2260  2263  2266  2268     9 
 2260  2263  2266  2269     9 
 2264  2263  2266  2267     9 
 2264  2263  2266  2268     9 
 2264  2263  2266  2269     9 
 2265  2263  2266  2267     9 
 2265  2263  2266  2268     9 
 2265  2263  2266  2269     9 
 2263  2266  2269  2270     9 
 2263  2266  2269  2271     9 
 2263  2266  2269  2272     9 
 2267  2266  2269  2270     9 
 2267  2266  2269  2271     9 
 2267  2266  2269  2272     9 
 2268  2266  2269  2270     9 
 2268  2266  2269  2271     9 
 2268  2266  2269  2272     9 
 2266  2269  2272  2273     9 
 2266  2269  2272  2274     9 
 2266  2269  2272  2275     9 
 2270  2269  2272  2273     9 
 2270  2269  2272  2274     9 
 2270  2269  2272  2275     9 
 2271  2269  2272  2273     9 
 2271  2269  2272  2274     9 
 2271  2269  2272  2275     9 
 2269  2272  2275  2276     9 
 2269  2272  2275  2277     9 
 2269  2272  2275  2278     9 
 2273  2272  2275  2276     9 
 2273  2272  2275  2277     9 
 2273  2272  2275  2278     9 
 2274  2272  2275  2276     9 
 2274  2272  2275  2277     9 
 2274  2272  2275  2278     9 
 2283  2279  2280  2281     9 
 2283  2279  2280  2282     9 
 2283  2279  2280  2295     9 
 2287  2279  2280  2281     9 
 2287  2279  2280  2282     9 
 2287  2279  2280  2295     9 
 2291  2279  2280  2281     9 
 2291  2279  2280  2282     9 
 2291  2279  2280  2295     9 
 2280  2279  2283  2284     9 
 2280  2279  2283  2285     9 
 2280  2279  2283  2286     9 
 2287  2279  2283  2284     9 
 2287  2279  2283  2285     9 
 2287  2279  2283  2286     9 
 2291  2279  2283  2284     9 
 2291  2279  2283  2285     9 
 2291  2279  2283  2286     9 
 2280  2279  2287  2288     9 
 2280  2279  2287  2289     9 
 2280  2279  2287  2290     9 
 2283  2279  2287  2288     9 
 2283  2279  2287  2289     9 
 2283  2279  2287  2290     9 
 2291  2279  2287  2288     9 
 2291  2279  2287  2289     9 
 2291  2279  2287  2290     9 
 2280  2279  2291  2292     9 
 2280  2279  2291  2293     9 
 2280  2279  2291  2294     9 
 2283  2279  2291  2292     9 
 2283  2279  2291  2293     9 
 2283  2279  2291  2294     9 
 2287  2279  2291  2292     9 
 2287  2279  2291  2293     9 
 2287  2279  2291  2294     9 
 2279  2280  2295  2296     9 
 2279  2280  2295  2297     9 
 2279  2280  2295  2301     9 
 2281  2280  2295  2296     9 
 2281  2280  2295  2297     9 
 2281  2280  2295  2301     9 
 2282  2280  2295  2296     9 
 2282  2280  2295  2297     9 
 2282  2280  2295  2301     9 
 2280  2295  2301  2298     9 
 2296  2295  2301  2298     9 
 2297  2295  2301  2298     9 
 2299  2298  2301  2295     9 
 2300  2298  2301  2295     9 
 2302  2298  2301  2295     9 
 2299  2298  2302  2303     9 
 2300  2298  2302  2303     9 
 2301  2298  2302  2303     9 
 2298  2302  2303  2304     9 
 2298  2302  2303  2305     9 
 2298  2302  2303  2306     9 
 2302  2303  2306  2307     9 
 2302  2303  2306  2308     9 
 2302  2303  2306  2314     9 
 2304  2303  2306  2307     9 
 2304  2303  2306  2308     9 
 2304  2303  2306  2314     9 
 2305  2303  2306  2307     9 
 2305  2303  2306  2308     9 
 2305  2303  2306  2314     9 
 2303  2306  2308  2309     9 
 2307  2306  2308  2309     9 
 2314  2306  2308  2309     9 
 2303  2306  2314  2315     9 
 2303  2306  2314  2316     9 
 2303  2306  2314  2317     9 
 2307  2306  2314  2315     9 
 2307  2306  2314  2316     9 
 2307  2306  2314  2317     9 
 2308  2306  2314  2315     9 
 2308  2306  2314  2316     9 
 2308  2306  2314  2317     9 
 2306  2308  2309  2310     9 
 2306  2308  2309  2311     9 
 2308  2309  2311  2312     9 
 2308  2309  2311  2313     9 
 2308  2309  2311  2323     9 
 2310  2309  2311  2312     9 
 2310  2309  2311  2313     9 
 2310  2309  2311  2323     9 
 2309  2311  2323  2324     9 
 2309  2311  2323  2325     9 
 2309  2311  2323  2326     9 
 2312  2311  2323  2324     9 
 2312  2311  2323  2325     9 
 2312  2311  2323  2326     9 
 2313  2311  2323  2324     9 
 2313  2311  2323  2325     9 
 2313  2311  2323  2326     9 
 2306  2314  2317  2318     9 
 2315  2314  2317  2318     9 
 2316  2314  2317  2318     9 
 2314  2317  2318  2319     9 
 2314  2317  2318  2320     9 
 2317  2318  2320  2321     9 
 2317  2318  2320  2322     9 
 2317  2318  2320  2370     9 
 2319  2318  2320  2321     9 
 2319  2318  2320  2322     9 
 2319  2318  2320  2370     9 
 2318  2320  2370  2371     9 
 2318  2320  2370  2372     9 
 2318  2320  2370  2373     9 
 2321  2320  2370  2371     9 
 2321  2320  2370  2372     9 
 2321  2320  2370  2373     9 
 2322  2320  2370  2371     9 
 2322  2320  2370  2372     9 
 2322  2320  2370  2373     9 
 2311  2323  2326  2327     9 
 2311  2323  2326  2328     9 
 2311  2323  2326  2329     9 
 2324  2323  2326  2327     9 
 2324  2323  2326  2328     9 
 2324  2323  2326  2329     9 
 2325  2323  2326  2327     9 
 2325  2323  2326  2328     9 
 2325  2323  2326  2329     9 
 2323  2326  2329  2330     9 
 2323  2326  2329  2331     9 
 2323  2326  2329  2332     9 
 2327  2326  2329  2330     9 
 2327  2326  2329  2331     9 
 2327  2326  2329  2332     9 
 2328  2326  2329  2330     9 
 2328  2326  2329  2331     9 
 2328  2326  2329  2332     9 
 2326  2329  2332  2333     9 
 2326  2329  2332  2334     9 
 2326  2329  2332  2335     9 
 2330  2329  2332  2333     9 
 2330  2329  2332  2334     9 
 2330  2329  2332  2335     9 
 2331  2329  2332  2333     9 
 2331  2329  2332  2334     9 
 2331  2329  2332  2335     9 
 2329  2332  2335  2336     9 
 2329  2332  2335  2337     9 
 2329  2332  2335  2338     9 
 2333  2332  2335  2336     9 
 2333  2332  2335  2337     9 
 2333  2332  2335  2338     9 
 2334  2332  2335  2336     9 
 2334  2332  2335  2337     9 
 2334  2332  2335  2338     9 
 2332  2335  2338  2339     9 
 2332  2335  2338  2340     9 
 2332  2335  2338  2341     9 
 2336  2335  2338  2339     9 
 2336  2335  2338  2340     9 
 2336  2335  2338  2341     9 
 2337  2335  2338  2339     9 
 2337  2335  2338  2340     9 
 2337  2335  2338  2341     9 
 2335  2338  2341  2342     9 
 2335  2338  2341  2343     9 
 2339  2338  2341  2342     9 
 2339  2338  2341  2343     9 
 2340  2338  2341  2342     9 
 2340  2338  2341  2343     9 
 2338  2341  2343  2344     9 
 2338  2341  2343  2345     9 
 2342  2341  2343  2344     9 
 2342  2341  2343  2345     9 
 2341  2343  2345  2346     9 
 2341  2343  2345  2347     9 
 2341  2343  2345  2348     9 
 2344  2343  2345  2346     9 
 2344  2343  2345  2347     9 
 2344  2343  2345  2348     9 
 2343  2345  2348  2349     9 
 2343  2345  2348  2350     9 
 2343  2345  2348  2351     9 
 2346  2345  2348  2349     9 
 2346  2345  2348  2350     9 
 2346  2345  2348  2351     9 
 2347  2345  2348  2349     9 
 2347  2345  2348  2350     9 
 2347  2345  2348  2351     9 
 2345  2348  2351  2352     9 
 2345  2348  2351  2353     9 
 2345  2348  2351  2354     9 
 2349  2348  2351  2352     9 
 2349  2348  2351  2353     9 
 2349  2348  2351  2354     9 
 2350  2348  2351  2352     9 
 2350  2348  2351  2353     9 
 2350  2348  2351  2354     9 
 2348  2351  2354  2355     9 
 2348  2351  2354  2356     9 
 2348  2351  2354  2357     9 
 2352  2351  2354  2355     9 
 2352  2351  2354  2356     9 
 2352  2351  2354  2357     9 
 2353  2351  2354  2355     9 
 2353  2351  2354  2356     9 
 2353  2351  2354  2357     9 
 2351  2354  2357  2358     9 
 2351  2354  2357  2359     9 
 2351  2354  2357  2360     9 
 2355  2354  2357  2358     9 
 2355  2354  2357  2359     9 
 2355  2354  2357  2360     9 
 2356  2354  2357  2358     9 
 2356  2354  2357  2359     9 
 2356  2354  2357  2360     9 
 2354  2357  2360  2361     9 
 2354  2357  2360  2362     9 
 2354  2357  2360  2363     9 
 2358  2357  2360  2361     9 
 2358  2357  2360  2362     9 
 2358  2357  2360  2363     9 
 2359  2357  2360  2361     9 
 2359  2357  2360  2362     9 
 2359  2357  2360  2363     9 
 2357  2360  2363  2364     9 
 2357  2360  2363  2365     9 
 2357  2360  2363  2366     9 
 2361  2360  2363  2364     9 
 2361  2360  2363  2365     9 
 2361  2360  2363  2366     9 
 2362  2360  2363  2364     9 
 2362  2360  2363  2365     9 
 2362  2360  2363  2366     9 
 2360  2363  2366  2367     9 
 2360  2363  2366  2368     9 
 2360  2363  2366  2369     9 
 2364  2363  2366  2367     9 
 2364  2363  2366  2368     9 
 2364  2363  2366  2369     9 
 2365  2363  2366  2367     9 
 2365  2363  2366  2368     9 
 2365  2363  2366  2369     9 
 2320  2370  2373  2374     9 
 2320  2370  2373  2375     9 
 2320  2370  2373  2376     9 
 2371  2370  2373  2374     9 
 2371  2370  2373  2375     9 
 2371  2370  2373  2376     9 
 2372  2370  2373  2374     9 
 2372  2370  2373  2375     9 
 2372  2370  2373  2376     9 
 2370  2373  2376  2377     9 
 2370  2373  2376  2378     9 
 2370  2373  2376  2379     9 
 2374  2373  2376  2377     9 
 2374  2373  2376  2378     9 
 2374  2373  2376  2379     9 
 2375  2373  2376  2377     9 
 2375  2373  2376  2378     9 
 2375  2373  2376  2379     9 
 2373  2376  2379  2380     9 
 2373  2376  2379  2381     9 
 2373  2376  2379  2382     9 
 2377  2376  2379  2380     9 
 2377  2376  2379  2381     9 
 2377  2376  2379  2382     9 
 2378  2376  2379  2380     9 
 2378  2376  2379  2381     9 
 2378  2376  2379  2382     9 
 2376  2379  2382  2383     9 
 2376  2379  2382  2384     9 
 2376  2379  2382  2385     9 
 2380  2379  2382  2383     9 
 2380  2379  2382  2384     9 
 2380  2379  2382  2385     9 
 2381  2379  2382  2383     9 
 2381  2379  2382  2384     9 
 2381  2379  2382  2385     9 
 2379  2382  2385  2386     9 
 2379  2382  2385  2387     9 
 2379  2382  2385  2388     9 
 2383  2382  2385  2386     9 
 2383  2382  2385  2387     9 
 2383  2382  2385  2388     9 
 2384  2382  2385  2386     9 
 2384  2382  2385  2387     9 
 2384  2382  2385  2388     9 
 2382  2385  2388  2389     9 
 2382  2385  2388  2390     9 
 2382  2385  2388  2391     9 
 2386  2385  2388  2389     9 
 2386  2385  2388  2390     9 
 2386  2385  2388  2391     9 
 2387  2385  2388  2389     9 
 2387  2385  2388  2390     9 
 2387  2385  2388  2391     9 
 2385  2388  2391  2392     9 
 2385  2388  2391  2393     9 
 2385  2388  2391  2394     9 
 2389  2388  2391  2392     9 
 2389  2388  2391  2393     9 
 2389  2388  2391  2394     9 
 2390  2388  2391  2392     9 
 2390  2388  2391  2393     9 
 2390  2388  2391  2394     9 
 2388  2391  2394  2395     9 
 2388  2391  2394  2396     9 
 2388  2391  2394  2397     9 
 2392  2391  2394  2395     9 
 2392  2391  2394  2396     9 
 2392  2391  2394  2397     9 
 2393  2391  2394  2395     9 
 2393  2391  2394  2396     9 
 2393  2391  2394  2397     9 
 2391  2394  2397  2398     9 
 2391  2394  2397  2399     9 
 2391  2394  2397  2400     9 
 2395  2394  2397  2398     9 
 2395  2394  2397  2399     9 
 2395  2394  2397  2400     9 
 2396  2394  2397  2398     9 
 2396  2394  2397  2399     9 
 2396  2394  2397  2400     9 
 2394  2397  2400  2401     9 
 2394  2397  2400  2402     9 
 2394  2397  2400  2403     9 
 2398  2397  2400  2401     9 
 2398  2397  2400  2402     9 
 2398  2397  2400  2403     9 
 2399  2397  2400  2401     9 
 2399  2397  2400  2402     9 
 2399  2397  2400  2403     9 
 2397  2400  2403  2404     9 
 2397  2400  2403  2405     9 
 2397  2400  2403  2406     9 
 2401  2400  2403  2404     9 
 2401  2400  2403  2405     9 
 2401  2400  2403  2406     9 
 2402  2400  2403  2404     9 
 2402  2400  2403  2405     9 
 2402  2400  2403  2406     9 
 2400  2403  2406  2407     9 
 2400  2403  2406  2408     9 
 2400  2403  2406  2409     9 
 2404  2403  2406  2407     9 
 2404  2403  2406  2408     9 
 2404  2403  2406  2409     9 
 2405  2403  2406  2407     9 
 2405  2403  2406  2408     9 
 2405  2403  2406  2409     9 
 2403  2406  2409  2410     9 
 2403  2406  2409  2411     9 
 2403  2406  2409  2412     9 
 2407  2406  2409  2410     9 
 2407  2406  2409  2411     9 
 2407  2406  2409  2412     9 
 2408  2406  2409  2410     9 
 2408  2406  2409  2411     9 
 2408  2406  2409  2412     9 
 2417  2413  2414  2415     9 
 2417  2413  2414  2416     9 
 2417  2413  2414  2429     9 
 2421  2413  2414  2415     9 
 2421  2413  2414  2416     9 
 2421  2413  2414  2429     9 
 2425  2413  2414  2415     9 
 2425  2413  2414  2416     9 
 2425  2413  2414  2429     9 
 2414  2413  2417  2418     9 
 2414  2413  2417  2419     9 
 2414  2413  2417  2420     9 
 2421  2413  2417  2418     9 
 2421  2413  2417  2419     9 
 2421  2413  2417  2420     9 
 2425  2413  2417  2418     9 
 2425  2413  2417  2419     9 
 2425  2413  2417  2420     9 
 2414  2413  2421  2422     9 
 2414  2413  2421  2423     9 
 2414  2413  2421  2424     9 
 2417  2413  2421  2422     9 
 2417  2413  2421  2423     9 
 2417  2413  2421  2424     9 
 2425  2413  2421  2422     9 
 2425  2413  2421  2423     9 
 2425  2413  2421  2424     9 
 2414  2413  2425  2426     9 
 2414  2413  2425  2427     9 
 2414  2413  2425  2428     9 
 2417  2413  2425  2426     9 
 2417  2413  2425  2427     9 
 2417  2413  2425  2428     9 
 2421  2413  2425  2426     9 
 2421  2413  2425  2427     9 
 2421  2413  2425  2428     9 
 2413  2414  2429  2430     9 
 2413  2414  2429  2431     9 
 2413  2414  2429  2435     9 
 2415  2414  2429  2430     9 
 2415  2414  2429  2431     9 
 2415  2414  2429  2435     9 
 2416  2414  2429  2430     9 
 2416  2414  2429  2431     9 
 2416  2414  2429  2435     9 
 2414  2429  2435  2432     9 
 2430  2429  2435  2432     9 
 2431  2429  2435  2432     9 
 2433  2432  2435  2429     9 
 2434  2432  2435  2429     9 
 2436  2432  2435  2429     9 
 2433  2432  2436  2437     9 
 2434  2432  2436  2437     9 
 2435  2432  2436  2437     9 
 2432  2436  2437  2438     9 
 2432  2436  2437  2439     9 
 2432  2436  2437  2440     9 
 2436  2437  2440  2441     9 
 2436  2437  2440  2442     9 
 2436  2437  2440  2448     9 
 2438  2437  2440  2441     9 
 2438  2437  2440  2442     9 
 2438  2437  2440  2448     9 
 2439  2437  2440  2441     9 
 2439  2437  2440  2442     9 
 2439  2437  2440  2448     9 
 2437  2440  2442  2443     9 
 2441  2440  2442  2443     9 
 2448  2440  2442  2443     9 
 2437  2440  2448  2449     9 
 2437  2440  2448  2450     9 
 2437  2440  2448  2451     9 
 2441  2440  2448  2449     9 
 2441  2440  2448  2450     9 
 2441  2440  2448  2451     9 
 2442  2440  2448  2449     9 
 2442  2440  2448  2450     9 
 2442  2440  2448  2451     9 
 2440  2442  2443  2444     9 
 2440  2442  2443  2445     9 
 2442  2443  2445  2446     9 
 2442  2443  2445  2447     9 
 2442  2443  2445  2457     9 
 2444  2443  2445  2446     9 
 2444  2443  2445  2447     9 
 2444  2443  2445  2457     9 
 2443  2445  2457  2458     9 
 2443  2445  2457  2459     9 
 2443  2445  2457  2460     9 
 2446  2445  2457  2458     9 
 2446  2445  2457  2459     9 
 2446  2445  2457  2460     9 
 2447  2445  2457  2458     9 
 2447  2445  2457  2459     9 
 2447  2445  2457  2460     9 
 2440  2448  2451  2452     9 
 2449  2448  2451  2452     9 
 2450  2448  2451  2452     9 
 2448  2451  2452  2453     9 
 2448  2451  2452  2454     9 
 2451  2452  2454  2455     9 
 2451  2452  2454  2456     9 
 2451  2452  2454  2504     9 
 2453  2452  2454  2455     9 
 2453  2452  2454  2456     9 
 2453  2452  2454  2504     9 
 2452  2454  2504  2505     9 
 2452  2454  2504  2506     9 
 2452  2454  2504  2507     9 
 2455  2454  2504  2505     9 
 2455  2454  2504  2506     9 
 2455  2454  2504  2507     9 
 2456  2454  2504  2505     9 
 2456  2454  2504  2506     9 
 2456  2454  2504  2507     9 
 2445  2457  2460  2461     9 
 2445  2457  2460  2462     9 
 2445  2457  2460  2463     9 
 2458  2457  2460  2461     9 
 2458  2457  2460  2462     9 
 2458  2457  2460  2463     9 
 2459  2457  2460  2461     9 
 2459  2457  2460  2462     9 
 2459  2457  2460  2463     9 
 2457  2460  2463  2464     9 
 2457  2460  2463  2465     9 
 2457  2460  2463  2466     9 
 2461  2460  2463  2464     9 
 2461  2460  2463  2465     9 
 2461  2460  2463  2466     9 
 2462  2460  2463  2464     9 
 2462  2460  2463  2465     9 
 2462  2460  2463  2466     9 
 2460  2463  2466  2467     9 
 2460  2463  2466  2468     9 
 2460  2463  2466  2469     9 
 2464  2463  2466  2467     9 
 2464  2463  2466  2468     9 
 2464  2463  2466  2469     9 
 2465  2463  2466  2467     9 
 2465  2463  2466  2468     9 
 2465  2463  2466  2469     9 
 2463  2466  2469  2470     9 
 2463  2466  2469  2471     9 
 2463  2466  2469  2472     9 
 2467  2466  2469  2470     9 
 2467  2466  2469  2471     9 
 2467  2466  2469  2472     9 
 2468  2466  2469  2470     9 
 2468  2466  2469  2471     9 
 2468  2466  2469  2472     9 
 2466  2469  2472  2473     9 
 2466  2469  2472  2474     9 
 2466  2469  2472  2475     9 
 2470  2469  2472  2473     9 
 2470  2469  2472  2474     9 
 2470  2469  2472  2475     9 
 2471  2469  2472  2473     9 
 2471  2469  2472  2474     9 
 2471  2469  2472  2475     9 
 2469  2472  2475  2476     9 
 2469  2472  2475  2477     9 
 2473  2472  2475  2476     9 
 2473  2472  2475  2477     9 
 2474  2472  2475  2476     9 
 2474  2472  2475  2477     9 
 2472  2475  2477  2478     9 
 2472  2475  2477  2479     9 
 2476  2475  2477  2478     9 
 2476  2475  2477  2479     9 
 2475  2477  2479  2480     9 
 2475  2477  2479  2481     9 
 2475  2477  2479  2482     9 
 2478  2477  2479  2480     9 
 2478  2477  2479  2481     9 
 2478  2477  2479  2482     9 
 2477  2479  2482  2483     9 
 2477  2479  2482  2484     9 
 2477  2479  2482  2485     9 
 2480  2479  2482  2483     9 
 2480  2479  2482  2484     9 
 2480  2479  2482  2485     9 
 2481  2479  2482  2483     9 
 2481  2479  2482  2484     9 
 2481  2479  2482  2485     9 
 2479  2482  2485  2486     9 
 2479  2482  2485  2487     9 
 2479  2482  2485  2488     9 
 2483  2482  2485  2486     9 
 2483  2482  2485  2487     9 
 2483  2482  2485  2488     9 
 2484  2482  2485  2486     9 
 2484  2482  2485  2487     9 
 2484  2482  2485  2488     9 
 2482  2485  2488  2489     9 
 2482  2485  2488  2490     9 
 2482  2485  2488  2491     9 
 2486  2485  2488  2489     9 
 2486  2485  2488  2490     9 
 2486  2485  2488  2491     9 
 2487  2485  2488  2489     9 
 2487  2485  2488  2490     9 
 2487  2485  2488  2491     9 
 2485  2488  2491  2492     9 
 2485  2488  2491  2493     9 
 2485  2488  2491  2494     9 
 2489  2488  2491  2492     9 
 2489  2488  2491  2493     9 
 2489  2488  2491  2494     9 
 2490  2488  2491  2492     9 
 2490  2488  2491  2493     9 
 2490  2488  2491  2494     9 
 2488  2491  2494  2495     9 
 2488  2491  2494  2496     9 
 2488  2491  2494  2497     9 
 2492  2491  2494  2495     9 
 2492  2491  2494  2496     9 
 2492  2491  2494  2497     9 
 2493  2491  2494  2495     9 
 2493  2491  2494  2496     9 
 2493  2491  2494  2497     9 
 2491  2494  2497  2498     9 
 2491  2494  2497  2499     9 
 2491  2494  2497  2500     9 
 2495  2494  2497  2498     9 
 2495  2494  2497  2499     9 
 2495  2494  2497  2500     9 
 2496  2494  2497  2498     9 
 2496  2494  2497  2499     9 
 2496  2494  2497  2500     9 
 2494  2497  2500  2501     9 
 2494  2497  2500  2502     9 
 2494  2497  2500  2503     9 
 2498  2497  2500  2501     9 
 2498  2497  2500  2502     9 
 2498  2497  2500  2503     9 
 2499  2497  2500  2501     9 
 2499  2497  2500  2502     9 
 2499  2497  2500  2503     9 
 2454  2504  2507  2508     9 
 2454  2504  2507  2509     9 
 2454  2504  2507  2510     9 
 2505  2504  2507  2508     9 
 2505  2504  2507  2509     9 
 2505  2504  2507  2510     9 
 2506  2504  2507  2508     9 
 2506  2504  2507  2509     9 
 2506  2504  2507  2510     9 
 2504  2507  2510  2511     9 
 2504  2507  2510  2512     9 
 2504  2507  2510  2513     9 
 2508  2507  2510  2511     9 
 2508  2507  2510  2512     9 
 2508  2507  2510  2513     9 
 2509  2507  2510  2511     9 
 2509  2507  2510  2512     9 
 2509  2507  2510  2513     9 
 2507  2510  2513  2514     9 
 2507  2510  2513  2515     9 
 2507  2510  2513  2516     9 
 2511  2510  2513  2514     9 
 2511  2510  2513  2515     9 
 2511  2510  2513  2516     9 
 2512  2510  2513  2514     9 
 2512  2510  2513  2515     9 
 2512  2510  2513  2516     9 
 2510  2513  2516  2517     9 
 2510  2513  2516  2518     9 
 2510  2513  2516  2519     9 
 2514  2513  2516  2517     9 
 2514  2513  2516  2518     9 
 2514  2513  2516  2519     9 
 2515  2513  2516  2517     9 
 2515  2513  2516  2518     9 
 2515  2513  2516  2519     9 
 2513  2516  2519  2520     9 
 2513  2516  2519  2521     9 
 2513  2516  2519  2522     9 
 2517  2516  2519  2520     9 
 2517  2516  2519  2521     9 
 2517  2516  2519  2522     9 
 2518  2516  2519  2520     9 
 2518  2516  2519  2521     9 
 2518  2516  2519  2522     9 
 2516  2519  2522  2523     9 
 2516  2519  2522  2524     9 
 2516  2519  2522  2525     9 
 2520  2519  2522  2523     9 
 2520  2519  2522  2524     9 
 2520  2519  2522  2525     9 
 2521  2519  2522  2523     9 
 2521  2519  2522  2524     9 
 2521  2519  2522  2525     9 
 2519  2522  2525  2526     9 
 2519  2522  2525  2527     9 
 2519  2522  2525  2528     9 
 2523  2522  2525  2526     9 
 2523  2522  2525  2527     9 
 2523  2522  2525  2528     9 
 2524  2522  2525  2526     9 
 2524  2522  2525  2527     9 
 2524  2522  2525  2528     9 
 2522  2525  2528  2529     9 
 2522  2525  2528  2530     9 
 2522  2525  2528  2531     9 
 2526  2525  2528  2529     9 
 2526  2525  2528  2530     9 
 2526  2525  2528  2531     9 
 2527  2525  2528  2529     9 
 2527  2525  2528  2530     9 
 2527  2525  2528  2531     9 
 2525  2528  2531  2532     9 
 2525  2528  2531  2533     9 
 2525  2528  2531  2534     9 
 2529  2528  2531  2532     9 
 2529  2528  2531  2533     9 
 2529  2528  2531  2534     9 
 2530  2528  2531  2532     9 
 2530  2528  2531  2533     9 
 2530  2528  2531  2534     9 
 2528  2531  2534  2535     9 
 2528  2531  2534  2536     9 
 2528  2531  2534  2537     9 
 2532  2531  2534  2535     9 
 2532  2531  2534  2536     9 
 2532  2531  2534  2537     9 
 2533  2531  2534  2535     9 
 2533  2531  2534  2536     9 
 2533  2531  2534  2537     9 
 2531  2534  2537  2538     9 
 2531  2534  2537  2539     9 
 2531  2534  2537  2540     9 
 2535  2534  2537  2538     9 
 2535  2534  2537  2539     9 
 2535  2534  2537  2540     9 
 2536  2534  2537  2538     9 
 2536  2534  2537  2539     9 
 2536  2534  2537  2540     9 
 2534  2537  2540  2541     9 
 2534  2537  2540  2542     9 
 2534  2537  2540  2543     9 
 2538  2537  2540  2541     9 
 2538  2537  2540  2542     9 
 2538  2537  2540  2543     9 
 2539  2537  2540  2541     9 
 2539  2537  2540  2542     9 
 2539  2537  2540  2543     9 
 2537  2540  2543  2544     9 
 2537  2540  2543  2545     9 
 2537  2540  2543  2546     9 
 2541  2540  2543  2544     9 
 2541  2540  2543  2545     9 
 2541  2540  2543  2546     9 
 2542  2540  2543  2544     9 
 2542  2540  2543  2545     9 
 2542  2540  2543  2546     9 
 2551  2547  2548  2549     9 
 2551  2547  2548  2550     9 
 2551  2547  2548  2563     9 
 2555  2547  2548  2549     9 
 2555  2547  2548  2550     9 
 2555  2547  2548  2563     9 
 2559  2547  2548  2549     9 
 2559  2547  2548  2550     9 
 2559  2547  2548  2563     9 
 2548  2547  2551  2552     9 
 2548  2547  2551  2553     9 
 2548  2547  2551  2554     9 
 2555  2547  2551  2552     9 
 2555  2547  2551  2553     9 
 2555  2547  2551  2554     9 
 2559  2547  2551  2552     9 
 2559  2547  2551  2553     9 
 2559  2547  2551  2554     9 
 2548  2547  2555  2556     9 
 2548  2547  2555  2557     9 
 2548  2547  2555  2558     9 
 2551  2547  2555  2556     9 
 2551  2547  2555  2557     9 
 2551  2547  2555  2558     9 
 2559  2547  2555  2556     9 
 2559  2547  2555  2557     9 
 2559  2547  2555  2558     9 
 2548  2547  2559  2560     9 
 2548  2547  2559  2561     9 
 2548  2547  2559  2562     9 
 2551  2547  2559  2560     9 
 2551  2547  2559  2561     9 
 2551  2547  2559  2562     9 
 2555  2547  2559  2560     9 
 2555  2547  2559  2561     9 
 2555  2547  2559  2562     9 
 2547  2548  2563  2564     9 
 2547  2548  2563  2565     9 
 2547  2548  2563  2569     9 
 2549  2548  2563  2564     9 
 2549  2548  2563  2565     9 
 2549  2548  2563  2569     9 
 2550  2548  2563  2564     9 
 2550  2548  2563  2565     9 
 2550  2548  2563  2569     9 
 2548  2563  2569  2566     9 
 2564  2563  2569  2566     9 
 2565  2563  2569  2566     9 
 2567  2566  2569  2563     9 
 2568  2566  2569  2563     9 
 2570  2566  2569  2563     9 
 2567  2566  2570  2571     9 
 2568  2566  2570  2571     9 
 2569  2566  2570  2571     9 
 2566  2570  2571  2572     9 
 2566  2570  2571  2573     9 
 2566  2570  2571  2574     9 
 2570  2571  2574  2575     9 
 2570  2571  2574  2576     9 
 2570  2571  2574  2582     9 
 2572  2571  2574  2575     9 
 2572  2571  2574  2576     9 
 2572  2571  2574  2582     9 
 2573  2571  2574  2575     9 
 2573  2571  2574  2576     9 
 2573  2571  2574  2582     9 
 2571  2574  2576  2577     9 
 2575  2574  2576  2577     9 
 2582  2574  2576  2577     9 
 2571  2574  2582  2583     9 
 2571  2574  2582  2584     9 
 2571  2574  2582  2585     9 
 2575  2574  2582  2583     9 
 2575  2574  2582  2584     9 
 2575  2574  2582  2585     9 
 2576  2574  2582  2583     9 
 2576  2574  2582  2584     9 
 2576  2574  2582  2585     9 
 2574  2576  2577  2578     9 
 2574  2576  2577  2579     9 
 2576  2577  2579  2580     9 
 2576  2577  2579  2581     9 
 2576  2577  2579  2591     9 
 2578  2577  2579  2580     9 
 2578  2577  2579  2581     9 
 2578  2577  2579  2591     9 
 2577  2579  2591  2592     9 
 2577  2579  2591  2593     9 
 2577  2579  2591  2594     9 
 2580  2579  2591  2592     9 
 2580  2579  2591  2593     9 
 2580  2579  2591  2594     9 
 2581  2579  2591  2592     9 
 2581  2579  2591  2593     9 
 2581  2579  2591  2594     9 
 2574  2582  2585  2586     9 
 2583  2582  2585  2586     9 
 2584  2582  2585  2586     9 
 2582  2585  2586  2587     9 
 2582  2585  2586  2588     9 
 2585  2586  2588  2589     9 
 2585  2586  2588  2590     9 
 2585  2586  2588  2638     9 
 2587  2586  2588  2589     9 
 2587  2586  2588  2590     9 
 2587  2586  2588  2638     9 
 2586  2588  2638  2639     9 
 2586  2588  2638  2640     9 
 2586  2588  2638  2641     9 
 2589  2588  2638  2639     9 
 2589  2588  2638  2640     9 
 2589  2588  2638  2641     9 
 2590  2588  2638  2639     9 
 2590  2588  2638  2640     9 
 2590  2588  2638  2641     9 
 2579  2591  2594  2595     9 
 2579  2591  2594  2596     9 
 2579  2591  2594  2597     9 
 2592  2591  2594  2595     9 
 2592  2591  2594  2596     9 
 2592  2591  2594  2597     9 
 2593  2591  2594  2595     9 
 2593  2591  2594  2596     9 
 2593  2591  2594  2597     9 
 2591  2594  2597  2598     9 
 2591  2594  2597  2599     9 
 2591  2594  2597  2600     9 
 2595  2594  2597  2598     9 
 2595  2594  2597  2599     9 
 2595  2594  2597  2600     9 
 2596  2594  2597  2598     9 
 2596  2594  2597  2599     9 
 2596  2594  2597  2600     9 
 2594  2597  2600  2601     9 
 2594  2597  2600  2602     9 
 2594  2597  2600  2603     9 
 2598  2597  2600  2601     9 
 2598  2597  2600  2602     9 
 2598  2597  2600  2603     9 
 2599  2597  2600  2601     9 
 2599  2597  2600  2602     9 
 2599  2597  2600  2603     9 
 2597  2600  2603  2604     9 
 2597  2600  2603  2605     9 
 2597  2600  2603  2606     9 
 2601  2600  2603  2604     9 
 2601  2600  2603  2605     9 
 2601  2600  2603  2606     9 
 2602  2600  2603  2604     9 
 2602  2600  2603  2605     9 
 2602  2600  2603  2606     9 
 2600  2603  2606  2607     9 
 2600  2603  2606  2608     9 
 2600  2603  2606  2609     9 
 2604  2603  2606  2607     9 
 2604  2603  2606  2608     9 
 2604  2603  2606  2609     9 
 2605  2603  2606  2607     9 
 2605  2603  2606  2608     9 
 2605  2603  2606  2609     9 
 2603  2606  2609  2610     9 
 2603  2606  2609  2611     9 
 2607  2606  2609  2610     9 
 2607  2606  2609  2611     9 
 2608  2606  2609  2610     9 
 2608  2606  2609  2611     9 
 2606  2609  2611  2612     9 
 2606  2609  2611  2613     9 
 2610  2609  2611  2612     9 
 2610  2609  2611  2613     9 
 2609  2611  2613  2614     9 
 2609  2611  2613  2615     9 
 2609  2611  2613  2616     9 
 2612  2611  2613  2614     9 
 2612  2611  2613  2615     9 
 2612  2611  2613  2616     9 
 2611  2613  2616  2617     9 
 2611  2613  2616  2618     9 
 2611  2613  2616  2619     9 
 2614  2613  2616  2617     9 
 2614  2613  2616  2618     9 
 2614  2613  2616  2619     9 
 2615  2613  2616  2617     9 
 2615  2613  2616  2618     9 
 2615  2613  2616  2619     9 
 2613  2616  2619  2620     9 
 2613  2616  2619  2621     9 
 2613  2616  2619  2622     9 
 2617  2616  2619  2620     9 
 2617  2616  2619  2621     9 
 2617  2616  2619  2622     9 
 2618  2616  2619  2620     9 
 2618  2616  2619  2621     9 
 2618  2616  2619  2622     9 
 2616  2619  2622  2623     9 
 2616  2619  2622  2624     9 
 2616  2619  2622  2625     9 
 2620  2619  2622  2623     9 
 2620  2619  2622  2624     9 
 2620  2619  2622  2625     9 
 2621  2619  2622  2623     9 
 2621  2619  2622  2624     9 
 2621  2619  2622  2625     9 
 2619  2622  2625  2626     9 
 2619  2622  2625  2627     9 
 2619  2622  2625  2628     9 
 2623  2622  2625  2626     9 
 2623  2622  2625  2627     9 
 2623  2622  2625  2628     9 
 2624  2622  2625  2626     9 
 2624  2622  2625  2627     9 
 2624  2622  2625  2628     9 
 2622  2625  2628  2629     9 
 2622  2625  2628  2630     9 
 2622  2625  2628  2631     9 
 2626  2625  2628  2629     9 
 2626  2625  2628  2630     9 
 2626  2625  2628  2631     9 
 2627  2625  2628  2629     9 
 2627  2625  2628  2630     9 
 2627  2625  2628  2631     9 
 2625  2628  2631  2632     9 
 2625  2628  2631  2633     9 
 2625  2628  2631  2634     9 
 2629  2628  2631  2632     9 
 2629  2628  2631  2633     9 
 2629  2628  2631  2634     9 
 2630  2628  2631  2632     9 
 2630  2628  2631  2633     9 
 2630  2628  2631  2634     9 
 2628  2631  2634  2635     9 
 2628  2631  2634  2636     9 
 2628  2631  2634  2637     9 
 2632  2631  2634  2635     9 
 2632  2631  2634  2636     9 
 2632  2631  2634  2637     9 
 2633  2631  2634  2635     9 
 2633  2631  2634  2636     9 
 2633  2631  2634  2637     9 
 2588  2638  2641  2642     9 
 2588  2638  2641  2643     9 
 2588  2638  2641  2644     9 
 2639  2638  2641  2642     9 
 2639  2638  2641  2643     9 
 2639  2638  2641  2644     9 
 2640  2638  2641  2642     9 
 2640  2638  2641  2643     9 
 2640  2638  2641  2644     9 
 2638  2641  2644  2645     9 
 2638  2641  2644  2646     9 
 2638  2641  2644  2647     9 
 2642  2641  2644  2645     9 
 2642  2641  2644  2646     9 
 2642  2641  2644  2647     9 
 2643  2641  2644  2645     9 
 2643  2641  2644  2646     9 
 2643  2641  2644  2647     9 
 2641  2644  2647  2648     9 
 2641  2644  2647  2649     9 
 2641  2644  2647  2650     9 
 2645  2644  2647  2648     9 
 2645  2644  2647  2649     9 
 2645  2644  2647  2650     9 
 2646  2644  2647  2648     9 
 2646  2644  2647  2649     9 
 2646  2644  2647  2650     9 
 2644  2647  2650  2651     9 
 2644  2647  2650  2652     9 
 2644  2647  2650  2653     9 
 2648  2647  2650  2651     9 
 2648  2647  2650  2652     9 
 2648  2647  2650  2653     9 
 2649  2647  2650  2651     9 
 2649  2647  2650  2652     9 
 2649  2647  2650  2653     9 
 2647  2650  2653  2654     9 
 2647  2650  2653  2655     9 
 2647  2650  2653  2656     9 
 2651  2650  2653  2654     9 
 2651  2650  2653  2655     9 
 2651  2650  2653  2656     9 
 2652  2650  2653  2654     9 
 2652  2650  2653  2655     9 
 2652  2650  2653  2656     9 
 2650  2653  2656  2657     9 
 2650  2653  2656  2658     9 
 2650  2653  2656  2659     9 
 2654  2653  2656  2657     9 
 2654  2653  2656  2658     9 
 2654  2653  2656  2659     9 
 2655  2653  2656  2657     9 
 2655  2653  2656  2658     9 
 2655  2653  2656  2659     9 
 2653  2656  2659  2660     9 
 2653  2656  2659  2661     9 
 2653  2656  2659  2662     9 
 2657  2656  2659  2660     9 
 2657  2656  2659  2661     9 
 2657  2656  2659  2662     9 
 2658  2656  2659  2660     9 
 2658  2656  2659  2661     9 
 2658  2656  2659  2662     9 
 2656  2659  2662  2663     9 
 2656  2659  2662  2664     9 
 2656  2659  2662  2665     9 
 2660  2659  2662  2663     9 
 2660  2659  2662  2664     9 
 2660  2659  2662  2665     9 
 2661  2659  2662  2663     9 
 2661  2659  2662  2664     9 
 2661  2659  2662  2665     9 
 2659  2662  2665  2666     9 
 2659  2662  2665  2667     9 
 2659  2662  2665  2668     9 
 2663  2662  2665  2666     9 
 2663  2662  2665  2667     9 
 2663  2662  2665  2668     9 
 2664  2662  2665  2666     9 
 2664  2662  2665  2667     9 
 2664  2662  2665  2668     9 
 2662  2665  2668  2669     9 
 2662  2665  2668  2670     9 
 2662  2665  2668  2671     9 
 2666  2665  2668  2669     9 
 2666  2665  2668  2670     9 
 2666  2665  2668  2671     9 
 2667  2665  2668  2669     9 
 2667  2665  2668  2670     9 
 2667  2665  2668  2671     9 
 2665  2668  2671  2672     9 
 2665  2668  2671  2673     9 
 2665  2668  2671  2674     9 
 2669  2668  2671  2672     9 
 2669  2668  2671  2673     9 
 2669  2668  2671  2674     9 
 2670  2668  2671  2672     9 
 2670  2668  2671  2673     9 
 2670  2668  2671  2674     9 
 2668  2671  2674  2675     9 
 2668  2671  2674  2676     9 
 2668  2671  2674  2677     9 
 2672  2671  2674  2675     9 
 2672  2671  2674  2676     9 
 2672  2671  2674  2677     9 
 2673  2671  2674  2675     9 
 2673  2671  2674  2676     9 
 2673  2671  2674  2677     9 
 2671  2674  2677  2678     9 
 2671  2674  2677  2679     9 
 2671  2674  2677  2680     9 
 2675  2674  2677  2678     9 
 2675  2674  2677  2679     9 
 2675  2674  2677  2680     9 
 2676  2674  2677  2678     9 
 2676  2674  2677  2679     9 
 2676  2674  2677  2680     9 
 2685  2681  2682  2683     9 
 2685  2681  2682  2684     9 
 2685  2681  2682  2697     9 
 2689  2681  2682  2683     9 
 2689  2681  2682  2684     9 
 2689  2681  2682  2697     9 
 2693  2681  2682  2683     9 
 2693  2681  2682  2684     9 
 2693  2681  2682  2697     9 
 2682  2681  2685  2686     9 
 2682  2681  2685  2687     9 
 2682  2681  2685  2688     9 
 2689  2681  2685  2686     9 
 2689  2681  2685  2687     9 
 2689  2681  2685  2688     9 
 2693  2681  2685  2686     9 
 2693  2681  2685  2687     9 
 2693  2681  2685  2688     9 
 2682  2681  2689  2690     9 
 2682  2681  2689  2691     9 
 2682  2681  2689  2692     9 
 2685  2681  2689  2690     9 
 2685  2681  2689  2691     9 
 2685  2681  2689  2692     9 
 2693  2681  2689  2690     9 
 2693  2681  2689  2691     9 
 2693  2681  2689  2692     9 
 2682  2681  2693  2694     9 
 2682  2681  2693  2695     9 
 2682  2681  2693  2696     9 
 2685  2681  2693  2694     9 
 2685  2681  2693  2695     9 
 2685  2681  2693  2696     9 
 2689  2681  2693  2694     9 
 2689  2681  2693  2695     9 
 2689  2681  2693  2696     9 
 2681  2682  2697  2698     9 
 2681  2682  2697  2699     9 
 2681  2682  2697  2703     9 
 2683  2682  2697  2698     9 
 2683  2682  2697  2699     9 
 2683  2682  2697  2703     9 
 2684  2682  2697  2698     9 
 2684  2682  2697  2699     9 
 2684  2682  2697  2703     9 
 2682  2697  2703  2700     9 
 2698  2697  2703  2700     9 
 2699  2697  2703  2700     9 
 2701  2700  2703  2697     9 
 2702  2700  2703  2697     9 
 2704  2700  2703  2697     9 
 2701  2700  2704  2705     9 
 2702  2700  2704  2705     9 
 2703  2700  2704  2705     9 
 2700  2704  2705  2706     9 
 2700  2704  2705  2707     9 
 2700  2704  2705  2708     9 
 2704  2705  2708  2709     9 
 2704  2705  2708  2710     9 
 2704  2705  2708  2716     9 
 2706  2705  2708  2709     9 
 2706  2705  2708  2710     9 
 2706  2705  2708  2716     9 
 2707  2705  2708  2709     9 
 2707  2705  2708  2710     9 
 2707  2705  2708  2716     9 
 2705  2708  2710  2711     9 
 2709  2708  2710  2711     9 
 2716  2708  2710  2711     9 
 2705  2708  2716  2717     9 
 2705  2708  2716  2718     9 
 2705  2708  2716  2719     9 
 2709  2708  2716  2717     9 
 2709  2708  2716  2718     9 
 2709  2708  2716  2719     9 
 2710  2708  2716  2717     9 
 2710  2708  2716  2718     9 
 2710  2708  2716  2719     9 
 2708  2710  2711  2712     9 
 2708  2710  2711  2713     9 
 2710  2711  2713  2714     9 
 2710  2711  2713  2715     9 
 2710  2711  2713  2725     9 
 2712  2711  2713  2714     9 
 2712  2711  2713  2715     9 
 2712  2711  2713  2725     9 
 2711  2713  2725  2726     9 
 2711  2713  2725  2727     9 
 2711  2713  2725  2728     9 
 2714  2713  2725  2726     9 
 2714  2713  2725  2727     9 
 2714  2713  2725  2728     9 
 2715  2713  2725  2726     9 
 2715  2713  2725  2727     9 
 2715  2713  2725  2728     9 
 2708  2716  2719  2720     9 
 2717  2716  2719  2720     9 
 2718  2716  2719  2720     9 
 2716  2719  2720  2721     9 
 2716  2719  2720  2722     9 
 2719  2720  2722  2723     9 
 2719  2720  2722  2724     9 
 2719  2720  2722  2772     9 
 2721  2720  2722  2723     9 
 2721  2720  2722  2724     9 
 2721  2720  2722  2772     9 
 2720  2722  2772  2773     9 
 2720  2722  2772  2774     9 
 2720  2722  2772  2775     9 
 2723  2722  2772  2773     9 
 2723  2722  2772  2774     9 
 2723  2722  2772  2775     9 
 2724  2722  2772  2773     9 
 2724  2722  2772  2774     9 
 2724  2722  2772  2775     9 
 2713  2725  2728  2729     9 
 2713  2725  2728  2730     9 
 2713  2725  2728  2731     9 
 2726  2725  2728  2729     9 
 2726  2725  2728  2730     9 
 2726  2725  2728  2731     9 
 2727  2725  2728  2729     9 
 2727  2725  2728  2730     9 
 2727  2725  2728  2731     9 
 2725  2728  2731  2732     9 
 2725  2728  2731  2733     9 
 2725  2728  2731  2734     9 
 2729  2728  2731  2732     9 
 2729  2728  2731  2733     9 
 2729  2728  2731  2734     9 
 2730  2728  2731  2732     9 
 2730  2728  2731  2733     9 
 2730  2728  2731  2734     9 
 2728  2731  2734  2735     9 
 2728  2731  2734  2736     9 
 2728  2731  2734  2737     9 
 2732  2731  2734  2735     9 
 2732  2731  2734  2736     9 
 2732  2731  2734  2737     9 
 2733  2731  2734  2735     9 
 2733  2731  2734  2736     9 
 2733  2731  2734  2737     9 
 2731  2734  2737  2738     9 
 2731  2734  2737  2739     9 
 2731  2734  2737  2740     9 
 2735  2734  2737  2738     9 
 2735  2734  2737  2739     9 
 2735  2734  2737  2740     9 
 2736  2734  2737  2738     9 
 2736  2734  2737  2739     9 
 2736  2734  2737  2740     9 
 2734  2737  2740  2741     9 
 2734  2737  2740  2742     9 
 2734  2737  2740  2743     9 
 2738  2737  2740  2741     9 
 2738  2737  2740  2742     9 
 2738  2737  2740  2743     9 
 2739  2737  2740  2741     9 
 2739  2737  2740  2742     9 
 2739  2737  2740  2743     9 
 2737  2740  2743  2744     9 
 2737  2740  2743  2745     9 
 2741  2740  2743  2744     9 
 2741  2740  2743  2745     9 
 2742  2740  2743  2744     9 
 2742  2740  2743  2745     9 
 2740  2743  2745  2746     9 
 2740  2743  2745  2747     9 
 2744  2743  2745  2746     9 
 2744  2743  2745  2747     9 
 2743  2745  2747  2748     9 
 2743  2745  2747  2749     9 
 2743  2745  2747  2750     9 
 2746  2745  2747  2748     9 
 2746  2745  2747  2749     9 
 2746  2745  2747  2750     9 
 2745  2747  2750  2751     9 
 2745  2747  2750  2752     9 
 2745  2747  2750  2753     9 
 2748  2747  2750  2751     9 
 2748  2747  2750  2752     9 
 2748  2747  2750  2753     9 
 2749  2747  2750  2751     9 
 2749  2747  2750  2752     9 
 2749  2747  2750  2753     9 
 2747  2750  2753  2754     9 
 2747  2750  2753  2755     9 
 2747  2750  2753  2756     9 
 2751  2750  2753  2754     9 
 2751  2750  2753  2755     9 
 2751  2750  2753  2756     9 
 2752  2750  2753  2754     9 
 2752  2750  2753  2755     9 
 2752  2750  2753  2756     9 
 2750  2753  2756  2757     9 
 2750  2753  2756  2758     9 
 2750  2753  2756  2759     9 
 2754  2753  2756  2757     9 
 2754  2753  2756  2758     9 
 2754  2753  2756  2759     9 
 2755  2753  2756  2757     9 
 2755  2753  2756  2758     9 
 2755  2753  2756  2759     9 
 2753  2756  2759  2760     9 
 2753  2756  2759  2761     9 
 2753  2756  2759  2762     9 
 2757  2756  2759  2760     9 
 2757  2756  2759  2761     9 
 2757  2756  2759  2762     9 
 2758  2756  2759  2760     9 
 2758  2756  2759  2761     9 
 2758  2756  2759  2762     9 
 2756  2759  2762  2763     9 
 2756  2759  2762  2764     9 
 2756  2759  2762  2765     9 
 2760  2759  2762  2763     9 
 2760  2759  2762  2764     9 
 2760  2759  2762  2765     9 
 2761  2759  2762  2763     9 
 2761  2759  2762  2764     9 
 2761  2759  2762  2765     9 
 2759  2762  2765  2766     9 
 2759  2762  2765  2767     9 
 2759  2762  2765  2768     9 
 2763  2762  2765  2766     9 
 2763  2762  2765  2767     9 
 2763  2762  2765  2768     9 
 2764  2762  2765  2766     9 
 2764  2762  2765  2767     9 
 2764  2762  2765  2768     9 
 2762  2765  2768  2769     9 
 2762  2765  2768  2770     9 
 2762  2765  2768  2771     9 
 2766  2765  2768  2769     9 
 2766  2765  2768  2770     9 
 2766  2765  2768  2771     9 
 2767  2765  2768  2769     9 
 2767  2765  2768  2770     9 
 2767  2765  2768  2771     9 
 2722  2772  2775  2776     9 
 2722  2772  2775  2777     9 
 2722  2772  2775  2778     9 
 2773  2772  2775  2776     9 
 2773  2772  2775  2777     9 
 2773  2772  2775  2778     9 
 2774  2772  2775  2776     9 
 2774  2772  2775  2777     9 
 2774  2772  2775  2778     9 
 2772  2775  2778  2779     9 
 2772  2775  2778  2780     9 
 2772  2775  2778  2781     9 
 2776  2775  2778  2779     9 
 2776  2775  2778  2780     9 
 2776  2775  2778  2781     9 
 2777  2775  2778  2779     9 
 2777  2775  2778  2780     9 
 2777  2775  2778  2781     9 
 2775  2778  2781  2782     9 
 2775  2778  2781  2783     9 
 2775  2778  2781  2784     9 
 2779  2778  2781  2782     9 
 2779  2778  2781  2783     9 
 2779  2778  2781  2784     9 
 2780  2778  2781  2782     9 
 2780  2778  2781  2783     9 
 2780  2778  2781  2784     9 
 2778  2781  2784  2785     9 
 2778  2781  2784  2786     9 
 2778  2781  2784  2787     9 
 2782  2781  2784  2785     9 
 2782  2781  2784  2786     9 
 2782  2781  2784  2787     9 
 2783  2781  2784  2785     9 
 2783  2781  2784  2786     9 
 2783  2781  2784  2787     9 
 2781  2784  2787  2788     9 
 2781  2784  2787  2789     9 
 2781  2784  2787  2790     9 
 2785  2784  2787  2788     9 
 2785  2784  2787  2789     9 
 2785  2784  2787  2790     9 
 2786  2784  2787  2788     9 
 2786  2784  2787  2789     9 
 2786  2784  2787  2790     9 
 2784  2787  2790  2791     9 
 2784  2787  2790  2792     9 
 2784  2787  2790  2793     9 
 2788  2787  2790  2791     9 
 2788  2787  2790  2792     9 
 2788  2787  2790  2793     9 
 2789  2787  2790  2791     9 
 2789  2787  2790  2792     9 
 2789  2787  2790  2793     9 
 2787  2790  2793  2794     9 
 2787  2790  2793  2795     9 
 2787  2790  2793  2796     9 
 2791  2790  2793  2794     9 
 2791  2790  2793  2795     9 
 2791  2790  2793  2796     9 
 2792  2790  2793  2794     9 
 2792  2790  2793  2795     9 
 2792  2790  2793  2796     9 
 2790  2793  2796  2797     9 
 2790  2793  2796  2798     9 
 2790  2793  2796  2799     9 
 2794  2793  2796  2797     9 
 2794  2793  2796  2798     9 
 2794  2793  2796  2799     9 
 2795  2793  2796  2797     9 
 2795  2793  2796  2798     9 
 2795  2793  2796  2799     9 
 2793  2796  2799  2800     9 
 2793  2796  2799  2801     9 
 2793  2796  2799  2802     9 
 2797  2796  2799  2800     9 
 2797  2796  2799  2801     9 
 2797  2796  2799  2802     9 
 2798  2796  2799  2800     9 
 2798  2796  2799  2801     9 
 2798  2796  2799  2802     9 
 2796  2799  2802  2803     9 
 2796  2799  2802  2804     9 
 2796  2799  2802  2805     9 
 2800  2799  2802  2803     9 
 2800  2799  2802  2804     9 
 2800  2799  2802  2805     9 
 2801  2799  2802  2803     9 
 2801  2799  2802  2804     9 
 2801  2799  2802  2805     9 
 2799  2802  2805  2806     9 
 2799  2802  2805  2807     9 
 2799  2802  2805  2808     9 
 2803  2802  2805  2806     9 
 2803  2802  2805  2807     9 
 2803  2802  2805  2808     9 
 2804  2802  2805  2806     9 
 2804  2802  2805  2807     9 
 2804  2802  2805  2808     9 
 2802  2805  2808  2809     9 
 2802  2805  2808  2810     9 
 2802  2805  2808  2811     9 
 2806  2805  2808  2809     9 
 2806  2805  2808  2810     9 
 2806  2805  2808  2811     9 
 2807  2805  2808  2809     9 
 2807  2805  2808  2810     9 
 2807  2805  2808  2811     9 
 2805  2808  2811  2812     9 
 2805  2808  2811  2813     9 
 2805  2808  2811  2814     9 
 2809  2808  2811  2812     9 
 2809  2808  2811  2813     9 
 2809  2808  2811  2814     9 
 2810  2808  2811  2812     9 
 2810  2808  2811  2813     9 
 2810  2808  2811  2814     9 
 2819  2815  2816  2817     9 
 2819  2815  2816  2818     9 
 2819  2815  2816  2831     9 
 2823  2815  2816  2817     9 
 2823  2815  2816  2818     9 
 2823  2815  2816  2831     9 
 2827  2815  2816  2817     9 
 2827  2815  2816  2818     9 
 2827  2815  2816  2831     9 
 2816  2815  2819  2820     9 
 2816  2815  2819  2821     9 
 2816  2815  2819  2822     9 
 2823  2815  2819  2820     9 
 2823  2815  2819  2821     9 
 2823  2815  2819  2822     9 
 2827  2815  2819  2820     9 
 2827  2815  2819  2821     9 
 2827  2815  2819  2822     9 
 2816  2815  2823  2824     9 
 2816  2815  2823  2825     9 
 2816  2815  2823  2826     9 
 2819  2815  2823  2824     9 
 2819  2815  2823  2825     9 
 2819  2815  2823  2826     9 
 2827  2815  2823  2824     9 
 2827  2815  2823  2825     9 
 2827  2815  2823  2826     9 
 2816  2815  2827  2828     9 
 2816  2815  2827  2829     9 
 2816  2815  2827  2830     9 
 2819  2815  2827  2828     9 
 2819  2815  2827  2829     9 
 2819  2815  2827  2830     9 
 2823  2815  2827  2828     9 
 2823  2815  2827  2829     9 
 2823  2815  2827  2830     9 
 2815  2816  2831  2832     9 
 2815  2816  2831  2833     9 
 2815  2816  2831  2837     9 
 2817  2816  2831  2832     9 
 2817  2816  2831  2833     9 
 2817  2816  2831  2837     9 
 2818  2816  2831  2832     9 
 2818  2816  2831  2833     9 
 2818  2816  2831  2837     9 
 2816  2831  2837  2834     9 
 2832  2831  2837  2834     9 
 2833  2831  2837  2834     9 
 2835  2834  2837  2831     9 
 2836  2834  2837  2831     9 
 2838  2834  2837  2831     9 
 2835  2834  2838  2839     9 
 2836  2834  2838  2839     9 
 2837  2834  2838  2839     9 
 2834  2838  2839  2840     9 
 2834  2838  2839  2841     9 
 2834  2838  2839  2842     9 
 2838  2839  2842  2843     9 
 2838  2839  2842  2844     9 
 2838  2839  2842  2850     9 
 2840  2839  2842  2843     9 
 2840  2839  2842  2844     9 
 2840  2839  2842  2850     9 
 2841  2839  2842  2843     9 
 2841  2839  2842  2844     9 
 2841  2839  2842  2850     9 
 2839  2842  2844  2845     9 
 2843  2842  2844  2845     9 
 2850  2842  2844  2845     9 
 2839  2842  2850  2851     9 
 2839  2842  2850  2852     9 
 2839  2842  2850  2853     9 
 2843  2842  2850  2851     9 
 2843  2842  2850  2852     9 
 2843  2842  2850  2853     9 
 2844  2842  2850  2851     9 
 2844  2842  2850  2852     9 
 2844  2842  2850  2853     9 
 2842  2844  2845  2846     9 
 2842  2844  2845  2847     9 
 2844  2845  2847  2848     9 
 2844  2845  2847  2849     9 
 2844  2845  2847  2859     9 
 2846  2845  2847  2848     9 
 2846  2845  2847  2849     9 
 2846  2845  2847  2859     9 
 2845  2847  2859  2860     9 
 2845  2847  2859  2861     9 
 2845  2847  2859  2862     9 
 2848  2847  2859  2860     9 
 2848  2847  2859  2861     9 
 2848  2847  2859  2862     9 
 2849  2847  2859  2860     9 
 2849  2847  2859  2861     9 
 2849  2847  2859  2862     9 
 2842  2850  2853  2854     9 
 2851  2850  2853  2854     9 
 2852  2850  2853  2854     9 
 2850  2853  2854  2855     9 
 2850  2853  2854  2856     9 
 2853  2854  2856  2857     9 
 2853  2854  2856  2858     9 
 2853  2854  2856  2906     9 
 2855  2854  2856  2857     9 
 2855  2854  2856  2858     9 
 2855  2854  2856  2906     9 
 2854  2856  2906  2907     9 
 2854  2856  2906  2908     9 
 2854  2856  2906  2909     9 
 2857  2856  2906  2907     9 
 2857  2856  2906  2908     9 
 2857  2856  2906  2909     9 
 2858  2856  2906  2907     9 
 2858  2856  2906  2908     9 
 2858  2856  2906  2909     9 
 2847  2859  2862  2863     9 
 2847  2859  2862  2864     9 
 2847  2859  2862  2865     9 
 2860  2859  2862  2863     9 
 2860  2859  2862  2864     9 
 2860  2859  2862  2865     9 
 2861  2859  2862  2863     9 
 2861  2859  2862  2864     9 
 2861  2859  2862  2865     9 
 2859  2862  2865  2866     9 
 2859  2862  2865  2867     9 
 2859  2862  2865  2868     9 
 2863  2862  2865  2866     9 
 2863  2862  2865  2867     9 
 2863  2862  2865  2868     9 
 2864  2862  2865  2866     9 
 2864  2862  2865  2867     9 
 2864  2862  2865  2868     9 
 2862  2865  2868  2869     9 
 2862  2865  2868  2870     9 
 2862  2865  2868  2871     9 
 2866  2865  2868  2869     9 
 2866  2865  2868  2870     9 
 2866  2865  2868  2871     9 
 2867  2865  2868  2869     9 
 2867  2865  2868  2870     9 
 2867  2865  2868  2871     9 
 2865  2868  2871  2872     9 
 2865  2868  2871  2873     9 
 2865  2868  2871  2874     9 
 2869  2868  2871  2872     9 
 2869  2868  2871  2873     9 
 2869  2868  2871  2874     9 
 2870  2868  2871  2872     9 
 2870  2868  2871  2873     9 
 2870  2868  2871  2874     9 
 2868  2871  2874  2875     9 
 2868  2871  2874  2876     9 
 2868  2871  2874  2877     9 
 2872  2871  2874  2875     9 
 2872  2871  2874  2876     9 
 2872  2871  2874  2877     9 
 2873  2871  2874  2875     9 
 2873  2871  2874  2876     9 
 2873  2871  2874  2877     9 
 2871  2874  2877  2878     9 
 2871  2874  2877  2879     9 
 2875  2874  2877  2878     9 
 2875  2874  2877  2879     9 
 2876  2874  2877  2878     9 
 2876  2874  2877  2879     9 
 2874  2877  2879  2880     9 
 2874  2877  2879  2881     9 
 2878  2877  2879  2880     9 
 2878  2877  2879  2881     9 
 2877  2879  2881  2882     9 
 2877  2879  2881  2883     9 
 2877  2879  2881  2884     9 
 2880  2879  2881  2882     9 
 2880  2879  2881  2883     9 
 2880  2879  2881  2884     9 
 2879  2881  2884  2885     9 
 2879  2881  2884  2886     9 
 2879  2881  2884  2887     9 
 2882  2881  2884  2885     9 
 2882  2881  2884  2886     9 
 2882  2881  2884  2887     9 
 2883  2881  2884  2885     9 
 2883  2881  2884  2886     9 
 2883  2881  2884  2887     9 
 2881  2884  2887  2888     9 
 2881  2884  2887  2889     9 
 2881  2884  2887  2890     9 
 2885  2884  2887  2888     9 
 2885  2884  2887  2889     9 
 2885  2884  2887  2890     9 
 2886  2884  2887  2888     9 
 2886  2884  2887  2889     9 
 2886  2884  2887  2890     9 
 2884  2887  2890  2891     9 
 2884  2887  2890  2892     9 
 2884  2887  2890  2893     9 
 2888  2887  2890  2891     9 
 2888  2887  2890  2892     9 
 2888  2887  2890  2893     9 
 2889  2887  2890  2891     9 
 2889  2887  2890  2892     9 
 2889  2887  2890  2893     9 
 2887  2890  2893  2894     9 
 2887  2890  2893  2895     9 
 2887  2890  2893  2896     9 
 2891  2890  2893  2894     9 
 2891  2890  2893  2895     9 
 2891  2890  2893  2896     9 
 2892  2890  2893  2894     9 
 2892  2890  2893  2895     9 
 2892  2890  2893  2896     9 
 2890  2893  2896  2897     9 
 2890  2893  2896  2898     9 
 2890  2893  2896  2899     9 
 2894  2893  2896  2897     9 
 2894  2893  2896  2898     9 
 2894  2893  2896  2899     9 
 2895  2893  2896  2897     9 
 2895  2893  2896  2898     9 
 2895  2893  2896  2899     9 
 2893  2896  2899  2900     9 
 2893  2896  2899  2901     9 
 2893  2896  2899  2902     9 
 2897  2896  2899  2900     9 
 2897  2896  2899  2901     9 
 2897  2896  2899  2902     9 
 2898  2896  2899  2900     9 
 2898  2896  2899  2901     9 
 2898  2896  2899  2902     9 
 2896  2899  2902  2903     9 
 2896  2899  2902  2904     9 
 2896  2899  2902  2905     9 
 2900  2899  2902  2903     9 
 2900  2899  2902  2904     9 
 2900  2899  2902  2905     9 
 2901  2899  2902  2903     9 
 2901  2899  2902  2904     9 
 2901  2899  2902  2905     9 
 2856  2906  2909  2910     9 
 2856  2906  2909  2911     9 
 2856  2906  2909  2912     9 
 2907  2906  2909  2910     9 
 2907  2906  2909  2911     9 
 2907  2906  2909  2912     9 
 2908  2906  2909  2910     9 
 2908  2906  2909  2911     9 
 2908  2906  2909  2912     9 
 2906  2909  2912  2913     9 
 2906  2909  2912  2914     9 
 2906  2909  2912  2915     9 
 2910  2909  2912  2913     9 
 2910  2909  2912  2914     9 
 2910  2909  2912  2915     9 
 2911  2909  2912  2913     9 
 2911  2909  2912  2914     9 
 2911  2909  2912  2915     9 
 2909  2912  2915  2916     9 
 2909  2912  2915  2917     9 
 2909  2912  2915  2918     9 
 2913  2912  2915  2916     9 
 2913  2912  2915  2917     9 
 2913  2912  2915  2918     9 
 2914  2912  2915  2916     9 
 2914  2912  2915  2917     9 
 2914  2912  2915  2918     9 
 2912  2915  2918  2919     9 
 2912  2915  2918  2920     9 
 2912  2915  2918  2921     9 
 2916  2915  2918  2919     9 
 2916  2915  2918  2920     9 
 2916  2915  2918  2921     9 
 2917  2915  2918  2919     9 
 2917  2915  2918  2920     9 
 2917  2915  2918  2921     9 
 2915  2918  2921  2922     9 
 2915  2918  2921  2923     9 
 2915  2918  2921  2924     9 
 2919  2918  2921  2922     9 
 2919  2918  2921  2923     9 
 2919  2918  2921  2924     9 
 2920  2918  2921  2922     9 
 2920  2918  2921  2923     9 
 2920  2918  2921  2924     9 
 2918  2921  2924  2925     9 
 2918  2921  2924  2926     9 
 2918  2921  2924  2927     9 
 2922  2921  2924  2925     9 
 2922  2921  2924  2926     9 
 2922  2921  2924  2927     9 
 2923  2921  2924  2925     9 
 2923  2921  2924  2926     9 
 2923  2921  2924  2927     9 
 2921  2924  2927  2928     9 
 2921  2924  2927  2929     9 
 2921  2924  2927  2930     9 
 2925  2924  2927  2928     9 
 2925  2924  2927  2929     9 
 2925  2924  2927  2930     9 
 2926  2924  2927  2928     9 
 2926  2924  2927  2929     9 
 2926  2924  2927  2930     9 
 2924  2927  2930  2931     9 
 2924  2927  2930  2932     9 
 2924  2927  2930  2933     9 
 2928  2927  2930  2931     9 
 2928  2927  2930  2932     9 
 2928  2927  2930  2933     9 
 2929  2927  2930  2931     9 
 2929  2927  2930  2932     9 
 2929  2927  2930  2933     9 
 2927  2930  2933  2934     9 
 2927  2930  2933  2935     9 
 2927  2930  2933  2936     9 
 2931  2930  2933  2934     9 
 2931  2930  2933  2935     9 
 2931  2930  2933  2936     9 
 2932  2930  2933  2934     9 
 2932  2930  2933  2935     9 
 2932  2930  2933  2936     9 
 2930  2933  2936  2937     9 
 2930  2933  2936  2938     9 
 2930  2933  2936  2939     9 
 2934  2933  2936  2937     9 
 2934  2933  2936  2938     9 
 2934  2933  2936  2939     9 
 2935  2933  2936  2937     9 
 2935  2933  2936  2938     9 
 2935  2933  2936  2939     9 
 2933  2936  2939  2940     9 
 2933  2936  2939  2941     9 
 2933  2936  2939  2942     9 
 2937  2936  2939  2940     9 
 2937  2936  2939  2941     9 
 2937  2936  2939  2942     9 
 2938  2936  2939  2940     9 
 2938  2936  2939  2941     9 
 2938  2936  2939  2942     9 
 2936  2939  2942  2943     9 
 2936  2939  2942  2944     9 
 2936  2939  2942  2945     9 
 2940  2939  2942  2943     9 
 2940  2939  2942  2944     9 
 2940  2939  2942  2945     9 
 2941  2939  2942  2943     9 
 2941  2939  2942  2944     9 
 2941  2939  2942  2945     9 
 2939  2942  2945  2946     9 
 2939  2942  2945  2947     9 
 2939  2942  2945  2948     9 
 2943  2942  2945  2946     9 
 2943  2942  2945  2947     9 
 2943  2942  2945  2948     9 
 2944  2942  2945  2946     9 
 2944  2942  2945  2947     9 
 2944  2942  2945  2948     9 
 2953  2949  2950  2951     9 
 2953  2949  2950  2952     9 
 2953  2949  2950  2965     9 
 2957  2949  2950  2951     9 
 2957  2949  2950  2952     9 
 2957  2949  2950  2965     9 
 2961  2949  2950  2951     9 
 2961  2949  2950  2952     9 
 2961  2949  2950  2965     9 
 2950  2949  2953  2954     9 
 2950  2949  2953  2955     9 
 2950  2949  2953  2956     9 
 2957  2949  2953  2954     9 
 2957  2949  2953  2955     9 
 2957  2949  2953  2956     9 
 2961  2949  2953  2954     9 
 2961  2949  2953  2955     9 
 2961  2949  2953  2956     9 
 2950  2949  2957  2958     9 
 2950  2949  2957  2959     9 
 2950  2949  2957  2960     9 
 2953  2949  2957  2958     9 
 2953  2949  2957  2959     9 
 2953  2949  2957  2960     9 
 2961  2949  2957  2958     9 
 2961  2949  2957  2959     9 
 2961  2949  2957  2960     9 
 2950  2949  2961  2962     9 
 2950  2949  2961  2963     9 
 2950  2949  2961  2964     9 
 2953  2949  2961  2962     9 
 2953  2949  2961  2963     9 
 2953  2949  2961  2964     9 
 2957  2949  2961  2962     9 
 2957  2949  2961  2963     9 
 2957  2949  2961  2964     9 
 2949  2950  2965  2966     9 
 2949  2950  2965  2967     9 
 2949  2950  2965  2971     9 
 2951  2950  2965  2966     9 
 2951  2950  2965  2967     9 
 2951  2950  2965  2971     9 
 2952  2950  2965  2966     9 
 2952  2950  2965  2967     9 
 2952  2950  2965  2971     9 
 2950  2965  2971  2968     9 
 2966  2965  2971  2968     9 
 2967  2965  2971  2968     9 
 2969  2968  2971  2965     9 
 2970  2968  2971  2965     9 
 2972  2968  2971  2965     9 
 2969  2968  2972  2973     9 
 2970  2968  2972  2973     9 
 2971  2968  2972  2973     9 
 2968  2972  2973  2974     9 
 2968  2972  2973  2975     9 
 2968  2972  2973  2976     9 
 2972  2973  2976  2977     9 
 2972  2973  2976  2978     9 
 2972  2973  2976  2984     9 
 2974  2973  2976  2977     9 
 2974  2973  2976  2978     9 
 2974  2973  2976  2984     9 
 2975  2973  2976  2977     9 
 2975  2973  2976  2978     9 
 2975  2973  2976  2984     9 
 2973  2976  2978  2979     9 
 2977  2976  2978  2979     9 
 2984  2976  2978  2979     9 
 2973  2976  2984  2985     9 
 2973  2976  2984  2986     9 
 2973  2976  2984  2987     9 
 2977  2976  2984  2985     9 
 2977  2976  2984  2986     9 
 2977  2976  2984  2987     9 
 2978  2976  2984  2985     9 
 2978  2976  2984  2986     9 
 2978  2976  2984  2987     9 
 2976  2978  2979  2980     9 
 2976  2978  2979  2981     9 
 2978  2979  2981  2982     9 
 2978  2979  2981  2983     9 
 2978  2979  2981  2993     9 
 2980  2979  2981  2982     9 
 2980  2979  2981  2983     9 
 2980  2979  2981  2993     9 
 2979  2981  2993  2994     9 
 2979  2981  2993  2995     9 
 2979  2981  2993  2996     9 
 2982  2981  2993  2994     9 
 2982  2981  2993  2995     9 
 2982  2981  2993  2996     9 
 2983  2981  2993  2994     9 
 2983  2981  2993  2995     9 
 2983  2981  2993  2996     9 
 2976  2984  2987  2988     9 
 2985  2984  2987  2988     9 
 2986  2984  2987  2988     9 
 2984  2987  2988  2989     9 
 2984  2987  2988  2990     9 
 2987  2988  2990  2991     9 
 2987  2988  2990  2992     9 
 2987  2988  2990  3040     9 
 2989  2988  2990  2991     9 
 2989  2988  2990  2992     9 
 2989  2988  2990  3040     9 
 2988  2990  3040  3041     9 
 2988  2990  3040  3042     9 
 2988  2990  3040  3043     9 
 2991  2990  3040  3041     9 
 2991  2990  3040  3042     9 
 2991  2990  3040  3043     9 
 2992  2990  3040  3041     9 
 2992  2990  3040  3042     9 
 2992  2990  3040  3043     9 
 2981  2993  2996  2997     9 
 2981  2993  2996  2998     9 
 2981  2993  2996  2999     9 
 2994  2993  2996  2997     9 
 2994  2993  2996  2998     9 
 2994  2993  2996  2999     9 
 2995  2993  2996  2997     9 
 2995  2993  2996  2998     9 
 2995  2993  2996  2999     9 
 2993  2996  2999  3000     9 
 2993  2996  2999  3001     9 
 2993  2996  2999  3002     9 
 2997  2996  2999  3000     9 
 2997  2996  2999  3001     9 
 2997  2996  2999  3002     9 
 2998  2996  2999  3000     9 
 2998  2996  2999  3001     9 
 2998  2996  2999  3002     9 
 2996  2999  3002  3003     9 
 2996  2999  3002  3004     9 
 2996  2999  3002  3005     9 
 3000  2999  3002  3003     9 
 3000  2999  3002  3004     9 
 3000  2999  3002  3005     9 
 3001  2999  3002  3003     9 
 3001  2999  3002  3004     9 
 3001  2999  3002  3005     9 
 2999  3002  3005  3006     9 
 2999  3002  3005  3007     9 
 2999  3002  3005  3008     9 
 3003  3002  3005  3006     9 
 3003  3002  3005  3007     9 
 3003  3002  3005  3008     9 
 3004  3002  3005  3006     9 
 3004  3002  3005  3007     9 
 3004  3002  3005  3008     9 
 3002  3005  3008  3009     9 
 3002  3005  3008  3010     9 
 3002  3005  3008  3011     9 
 3006  3005  3008  3009     9 
 3006  3005  3008  3010     9 
 3006  3005  3008  3011     9 
 3007  3005  3008  3009     9 
 3007  3005  3008  3010     9 
 3007  3005  3008  3011     9 
 3005  3008  3011  3012     9 
 3005  3008  3011  3013     9 
 3009  3008  3011  3012     9 
 3009  3008  3011  3013     9 
 3010  3008  3011  3012     9 
 3010  3008  3011  3013     9 
 3008  3011  3013  3014     9 
 3008  3011  3013  3015     9 
 3012  3011  3013  3014     9 
 3012  3011  3013  3015     9 
 3011  3013  3015  3016     9 
 3011  3013  3015  3017     9 
 3011  3013  3015  3018     9 
 3014  3013  3015  3016     9 
 3014  3013  3015  3017     9 
 3014  3013  3015  3018     9 
 3013  3015  3018  3019     9 
 3013  3015  3018  3020     9 
 3013  3015  3018  3021     9 
 3016  3015  3018  3019     9 
 3016  3015  3018  3020     9 
 3016  3015  3018  3021     9 
 3017  3015  3018  3019     9 
 3017  3015  3018  3020     9 
 3017  3015  3018  3021     9 
 3015  3018  3021  3022     9 
 3015  3018  3021  3023     9 
 3015  3018  3021  3024     9 
 3019  3018  3021  3022     9 
 3019  3018  3021  3023     9 
 3019  3018  3021  3024     9 
 3020  3018  3021  3022     9 
 3020  3018  3021  3023     9 
 3020  3018  3021  3024     9 
 3018  3021  3024  3025     9 
 3018  3021  3024  3026     9 
 3018  3021  3024  3027     9 
 3022  3021  3024  3025     9 
 3022  3021  3024  3026     9 
 3022  3021  3024  3027     9 
 3023  3021  3024  3025     9 
 3023  3021  3024  3026     9 
 3023  3021  3024  3027     9 
 3021  3024  3027  3028     9 
 3021  3024  3027  3029     9 
 3021  3024  3027  3030     9 
 3025  3024  3027  3028     9 
 3025  3024  3027  3029     9 
 3025  3024  3027  3030     9 
 3026  3024  3027  3028     9 
 3026  3024  3027  3029     9 
 3026  3024  3027  3030     9 
 3024  3027  3030  3031     9 
 3024  3027  3030  3032     9 
 3024  3027  3030  3033     9 
 3028  3027  3030  3031     9 
 3028  3027  3030  3032     9 
 3028  3027  3030  3033     9 
 3029  3027  3030  3031     9 
 3029  3027  3030  3032     9 
 3029  3027  3030  3033     9 
 3027  3030  3033  3034     9 
 3027  3030  3033  3035     9 
 3027  3030  3033  3036     9 
 3031  3030  3033  3034     9 
 3031  3030  3033  3035     9 
 3031  3030  3033  3036     9 
 3032  3030  3033  3034     9 
 3032  3030  3033  3035     9 
 3032  3030  3033  3036     9 
 3030  3033  3036  3037     9 
 3030  3033  3036  3038     9 
 3030  3033  3036  3039     9 
 3034  3033  3036  3037     9 
 3034  3033  3036  3038     9 
 3034  3033  3036  3039     9 
 3035  3033  3036  3037     9 
 3035  3033  3036  3038     9 
 3035  3033  3036  3039     9 
 2990  3040  3043  3044     9 
 2990  3040  3043  3045     9 
 2990  3040  3043  3046     9 
 3041  3040  3043  3044     9 
 3041  3040  3043  3045     9 
 3041  3040  3043  3046     9 
 3042  3040  3043  3044     9 
 3042  3040  3043  3045     9 
 3042  3040  3043  3046     9 
 3040  3043  3046  3047     9 
 3040  3043  3046  3048     9 
 3040  3043  3046  3049     9 
 3044  3043  3046  3047     9 
 3044  3043  3046  3048     9 
 3044  3043  3046  3049     9 
 3045  3043  3046  3047     9 
 3045  3043  3046  3048     9 
 3045  3043  3046  3049     9 
 3043  3046  3049  3050     9 
 3043  3046  3049  3051     9 
 3043  3046  3049  3052     9 
 3047  3046  3049  3050     9 
 3047  3046  3049  3051     9 
 3047  3046  3049  3052     9 
 3048  3046  3049  3050     9 
 3048  3046  3049  3051     9 
 3048  3046  3049  3052     9 
 3046  3049  3052  3053     9 
 3046  3049  3052  3054     9 
 3046  3049  3052  3055     9 
 3050  3049  3052  3053     9 
 3050  3049  3052  3054     9 
 3050  3049  3052  3055     9 
 3051  3049  3052  3053     9 
 3051  3049  3052  3054     9 
 3051  3049  3052  3055     9 
 3049  3052  3055  3056     9 
 3049  3052  3055  3057     9 
 3049  3052  3055  3058     9 
 3053  3052  3055  3056     9 
 3053  3052  3055  3057     9 
 3053  3052  3055  3058     9 
 3054  3052  3055  3056     9 
 3054  3052  3055  3057     9 
 3054  3052  3055  3058     9 
 3052  3055  3058  3059     9 
 3052  3055  3058  3060     9 
 3052  3055  3058  3061     9 
 3056  3055  3058  3059     9 
 3056  3055  3058  3060     9 
 3056  3055  3058  3061     9 
 3057  3055  3058  3059     9 
 3057  3055  3058  3060     9 
 3057  3055  3058  3061     9 
 3055  3058  3061  3062     9 
 3055  3058  3061  3063     9 
 3055  3058  3061  3064     9 
 3059  3058  3061  3062     9 
 3059  3058  3061  3063     9 
 3059  3058  3061  3064     9 
 3060  3058  3061  3062     9 
 3060  3058  3061  3063     9 
 3060  3058  3061  3064     9 
 3058  3061  3064  3065     9 
 3058  3061  3064  3066     9 
 3058  3061  3064  3067     9 
 3062  3061  3064  3065     9 
 3062  3061  3064  3066     9 
 3062  3061  3064  3067     9 
 3063  3061  3064  3065     9 
 3063  3061  3064  3066     9 
 3063  3061  3064  3067     9 
 3061  3064  3067  3068     9 
 3061  3064  3067  3069     9 
 3061  3064  3067  3070     9 
 3065  3064  3067  3068     9 
 3065  3064  3067  3069     9 
 3065  3064  3067  3070     9 
 3066  3064  3067  3068     9 
 3066  3064  3067  3069     9 
 3066  3064  3067  3070     9 
 3064  3067  3070  3071     9 
 3064  3067  3070  3072     9 
 3064  3067  3070  3073     9 
 3068  3067  3070  3071     9 
 3068  3067  3070  3072     9 
 3068  3067  3070  3073     9 
 3069  3067  3070  3071     9 
 3069  3067  3070  3072     9 
 3069  3067  3070  3073     9 
 3067  3070  3073  3074     9 
 3067  3070  3073  3075     9 
 3067  3070  3073  3076     9 
 3071  3070  3073  3074     9 
 3071  3070  3073  3075     9 
 3071  3070  3073  3076     9 
 3072  3070  3073  3074     9 
 3072  3070  3073  3075     9 
 3072  3070  3073  3076     9 
 3070  3073  3076  3077     9 
 3070  3073  3076  3078     9 
 3070  3073  3076  3079     9 
 3074  3073  3076  3077     9 
 3074  3073  3076  3078     9 
 3074  3073  3076  3079     9 
 3075  3073  3076  3077     9 
 3075  3073  3076  3078     9 
 3075  3073  3076  3079     9 
 3073  3076  3079  3080     9 
 3073  3076  3079  3081     9 
 3073  3076  3079  3082     9 
 3077  3076  3079  3080     9 
 3077  3076  3079  3081     9 
 3077  3076  3079  3082     9 
 3078  3076  3079  3080     9 
 3078  3076  3079  3081     9 
 3078  3076  3079  3082     9 
 3087  3083  3084  3085     9 
 3087  3083  3084  3086     9 
 3087  3083  3084  3099     9 
 3091  3083  3084  3085     9 
 3091  3083  3084  3086     9 
 3091  3083  3084  3099     9 
 3095  3083  3084  3085     9 
 3095  3083  3084  3086     9 
 3095  3083  3084  3099     9 
 3084  3083  3087  3088     9 
 3084  3083  3087  3089     9 
 3084  3083  3087  3090     9 
 3091  3083  3087  3088     9 
 3091  3083  3087  3089     9 
 3091  3083  3087  3090     9 
 3095  3083  3087  3088     9 
 3095  3083  3087  3089     9 
 3095  3083  3087  3090     9 
 3084  3083  3091  3092     9 
 3084  3083  3091  3093     9 
 3084  3083  3091  3094     9 
 3087  3083  3091  3092     9 
 3087  3083  3091  3093     9 
 3087  3083  3091  3094     9 
 3095  3083  3091  3092     9 
 3095  3083  3091  3093     9 
 3095  3083  3091  3094     9 
 3084  3083  3095  3096     9 
 3084  3083  3095  3097     9 
 3084  3083  3095  3098     9 
 3087  3083  3095  3096     9 
 3087  3083  3095  3097     9 
 3087  3083  3095  3098     9 
 3091  3083  3095  3096     9 
 3091  3083  3095  3097     9 
 3091  3083  3095  3098     9 
 3083  3084  3099  3100     9 
 3083  3084  3099  3101     9 
 3083  3084  3099  3105     9 
 3085  3084  3099  3100     9 
 3085  3084  3099  3101     9 
 3085  3084  3099  3105     9 
 3086  3084  3099  3100     9 
 3086  3084  3099  3101     9 
 3086  3084  3099  3105     9 
 3084  3099  3105  3102     9 
 3100  3099  3105  3102     9 
 3101  3099  3105  3102     9 
 3103  3102  3105  3099     9 
 3104  3102  3105  3099     9 
 3106  3102  3105  3099     9 
 3103  3102  3106  3107     9 
 3104  3102  3106  3107     9 
 3105  3102  3106  3107     9 
 3102  3106  3107  3108     9 
 3102  3106  3107  3109     9 
 3102  3106  3107  3110     9 
 3106  3107  3110  3111     9 
 3106  3107  3110  3112     9 
 3106  3107  3110  3118     9 
 3108  3107  3110  3111     9 
 3108  3107  3110  3112     9 
 3108  3107  3110  3118     9 
 3109  3107  3110  3111     9 
 3109  3107  3110  3112     9 
 3109  3107  3110  3118     9 
 3107  3110  3112  3113     9 
 3111  3110  3112  3113     9 
 3118  3110  3112  3113     9 
 3107  3110  3118  3119     9 
 3107  3110  3118  3120     9 
 3107  3110  3118  3121     9 
 3111  3110  3118  3119     9 
 3111  3110  3118  3120     9 
 3111  3110  3118  3121     9 
 3112  3110  3118  3119     9 
 3112  3110  3118  3120     9 
 3112  3110  3118  3121     9 
 3110  3112  3113  3114     9 
 3110  3112  3113  3115     9 
 3112  3113  3115  3116     9 
 3112  3113  3115  3117     9 
 3112  3113  3115  3127     9 
 3114  3113  3115  3116     9 
 3114  3113  3115  3117     9 
 3114  3113  3115  3127     9 
 3113  3115  3127  3128     9 
 3113  3115  3127  3129     9 
 3113  3115  3127  3130     9 
 3116  3115  3127  3128     9 
 3116  3115  3127  3129     9 
 3116  3115  3127  3130     9 
 3117  3115  3127  3128     9 
 3117  3115  3127  3129     9 
 3117  3115  3127  3130     9 
 3110  3118  3121  3122     9 
 3119  3118  3121  3122     9 
 3120  3118  3121  3122     9 
 3118  3121  3122  3123     9 
 3118  3121  3122  3124     9 
 3121  3122  3124  3125     9 
 3121  3122  3124  3126     9 
 3121  3122  3124  3174     9 
 3123  3122  3124  3125     9 
 3123  3122  3124  3126     9 
 3123  3122  3124  3174     9 
 3122  3124  3174  3175     9 
 3122  3124  3174  3176     9 
 3122  3124  3174  3177     9 
 3125  3124  3174  3175     9 
 3125  3124  3174  3176     9 
 3125  3124  3174  3177     9 
 3126  3124  3174  3175     9 
 3126  3124  3174  3176     9 
 3126  3124  3174  3177     9 
 3115  3127  3130  3131     9 
 3115  3127  3130  3132     9 
 3115  3127  3130  3133     9 
 3128  3127  3130  3131     9 
 3128  3127  3130  3132     9 
 3128  3127  3130  3133     9 
 3129  3127  3130  3131     9 
 3129  3127  3130  3132     9 
 3129  3127  3130  3133     9 
 3127  3130  3133  3134     9 
 3127  3130  3133  3135     9 
 3127  3130  3133  3136     9 
 3131  3130  3133  3134     9 
 3131  3130  3133  3135     9 
 3131  3130  3133  3136     9 
 3132  3130  3133  3134     9 
 3132  3130  3133  3135     9 
 3132  3130  3133  3136     9 
 3130  3133  3136  3137     9 
 3130  3133  3136  3138     9 
 3130  3133  3136  3139     9 
 3134  3133  3136  3137     9 
 3134  3133  3136  3138     9 
 3134  3133  3136  3139     9 
 3135  3133  3136  3137     9 
 3135  3133  3136  3138     9 
 3135  3133  3136  3139     9 
 3133  3136  3139  3140     9 
 3133  3136  3139  3141     9 
 3133  3136  3139  3142     9 
 3137  3136  3139  3140     9 
 3137  3136  3139  3141     9 
 3137  3136  3139  3142     9 
 3138  3136  3139  3140     9 
 3138  3136  3139  3141     9 
 3138  3136  3139  3142     9 
 3136  3139  3142  3143     9 
 3136  3139  3142  3144     9 
 3136  3139  3142  3145     9 
 3140  3139  3142  3143     9 
 3140  3139  3142  3144     9 
 3140  3139  3142  3145     9 
 3141  3139  3142  3143     9 
 3141  3139  3142  3144     9 
 3141  3139  3142  3145     9 
 3139  3142  3145  3146     9 
 3139  3142  3145  3147     9 
 3143  3142  3145  3146     9 
 3143  3142  3145  3147     9 
 3144  3142  3145  3146     9 
 3144  3142  3145  3147     9 
 3142  3145  3147  3148     9 
 3142  3145  3147  3149     9 
 3146  3145  3147  3148     9 
 3146  3145  3147  3149     9 
 3145  3147  3149  3150     9 
 3145  3147  3149  3151     9 
 3145  3147  3149  3152     9 
 3148  3147  3149  3150     9 
 3148  3147  3149  3151     9 
 3148  3147  3149  3152     9 
 3147  3149  3152  3153     9 
 3147  3149  3152  3154     9 
 3147  3149  3152  3155     9 
 3150  3149  3152  3153     9 
 3150  3149  3152  3154     9 
 3150  3149  3152  3155     9 
 3151  3149  3152  3153     9 
 3151  3149  3152  3154     9 
 3151  3149  3152  3155     9 
 3149  3152  3155  3156     9 
 3149  3152  3155  3157     9 
 3149  3152  3155  3158     9 
 3153  3152  3155  3156     9 
 3153  3152  3155  3157     9 
 3153  3152  3155  3158     9 
 3154  3152  3155  3156     9 
 3154  3152  3155  3157     9 
 3154  3152  3155  3158     9 
 3152  3155  3158  3159     9 
 3152  3155  3158  3160     9 
 3152  3155  3158  3161     9 
 3156  3155  3158  3159     9 
 3156  3155  3158  3160     9 
 3156  3155  3158  3161     9 
 3157  3155  3158  3159     9 
 3157  3155  3158  3160     9 
 3157  3155  3158  3161     9 
 3155  3158  3161  3162     9 
 3155  3158  3161  3163     9 
 3155  3158  3161  3164     9 
 3159  3158  3161  3162     9 
 3159  3158  3161  3163     9 
 3159  3158  3161  3164     9 
 3160  3158  3161  3162     9 
 3160  3158  3161  3163     9 
 3160  3158  3161  3164     9 
 3158  3161  3164  3165     9 
 3158  3161  3164  3166     9 
 3158  3161  3164  3167     9 
 3162  3161  3164  3165     9 
 3162  3161  3164  3166     9 
 3162  3161  3164  3167     9 
 3163  3161  3164  3165     9 
 3163  3161  3164  3166     9 
 3163  3161  3164  3167     9 
 3161  3164  3167  3168     9 
 3161  3164  3167  3169     9 
 3161  3164  3167  3170     9 
 3165  3164  3167  3168     9 
 3165  3164  3167  3169     9 
 3165  3164  3167  3170     9 
 3166  3164  3167  3168     9 
 3166  3164  3167  3169     9 
 3166  3164  3167  3170     9 
 3164  3167  3170  3171     9 
 3164  3167  3170  3172     9 
 3164  3167  3170  3173     9 
 3168  3167  3170  3171     9 
 3168  3167  3170  3172     9 
 3168  3167  3170  3173     9 
 3169  3167  3170  3171     9 
 3169  3167  3170  3172     9 
 3169  3167  3170  3173     9 
 3124  3174  3177  3178     9 
 3124  3174  3177  3179     9 
 3124  3174  3177  3180     9 
 3175  3174  3177  3178     9 
 3175  3174  3177  3179     9 
 3175  3174  3177  3180     9 
 3176  3174  3177  3178     9 
 3176  3174  3177  3179     9 
 3176  3174  3177  3180     9 
 3174  3177  3180  3181     9 
 3174  3177  3180  3182     9 
 3174  3177  3180  3183     9 
 3178  3177  3180  3181     9 
 3178  3177  3180  3182     9 
 3178  3177  3180  3183     9 
 3179  3177  3180  3181     9 
 3179  3177  3180  3182     9 
 3179  3177  3180  3183     9 
 3177  3180  3183  3184     9 
 3177  3180  3183  3185     9 
 3177  3180  3183  3186     9 
 3181  3180  3183  3184     9 
 3181  3180  3183  3185     9 
 3181  3180  3183  3186     9 
 3182  3180  3183  3184     9 
 3182  3180  3183  3185     9 
 3182  3180  3183  3186     9 
 3180  3183  3186  3187     9 
 3180  3183  3186  3188     9 
 3180  3183  3186  3189     9 
 3184  3183  3186  3187     9 
 3184  3183  3186  3188     9 
 3184  3183  3186  3189     9 
 3185  3183  3186  3187     9 
 3185  3183  3186  3188     9 
 3185  3183  3186  3189     9 
 3183  3186  3189  3190     9 
 3183  3186  3189  3191     9 
 3183  3186  3189  3192     9 
 3187  3186  3189  3190     9 
 3187  3186  3189  3191     9 
 3187  3186  3189  3192     9 
 3188  3186  3189  3190     9 
 3188  3186  3189  3191     9 
 3188  3186  3189  3192     9 
 3186  3189  3192  3193     9 
 3186  3189  3192  3194     9 
 3186  3189  3192  3195     9 
 3190  3189  3192  3193     9 
 3190  3189  3192  3194     9 
 3190  3189  3192  3195     9 
 3191  3189  3192  3193     9 
 3191  3189  3192  3194     9 
 3191  3189  3192  3195     9 
 3189  3192  3195  3196     9 
 3189  3192  3195  3197     9 
 3189  3192  3195  3198     9 
 3193  3192  3195  3196     9 
 3193  3192  3195  3197     9 
 3193  3192  3195  3198     9 
 3194  3192  3195  3196     9 
 3194  3192  3195  3197     9 
 3194  3192  3195  3198     9 
 3192  3195  3198  3199     9 
 3192  3195  3198  3200     9 
 3192  3195  3198  3201     9 
 3196  3195  3198  3199     9 
 3196  3195  3198  3200     9 
 3196  3195  3198  3201     9 
 3197  3195  3198  3199     9 
 3197  3195  3198  3200     9 
 3197  3195  3198  3201     9 
 3195  3198  3201  3202     9 
 3195  3198  3201  3203     9 
 3195  3198  3201  3204     9 
 3199  3198  3201  3202     9 
 3199  3198  3201  3203     9 
 3199  3198  3201  3204     9 
 3200  3198  3201  3202     9 
 3200  3198  3201  3203     9 
 3200  3198  3201  3204     9 
 3198  3201  3204  3205     9 
 3198  3201  3204  3206     9 
 3198  3201  3204  3207     9 
 3202  3201  3204  3205     9 
 3202  3201  3204  3206     9 
 3202  3201  3204  3207     9 
 3203  3201  3204  3205     9 
 3203  3201  3204  3206     9 
 3203  3201  3204  3207     9 
 3201  3204  3207  3208     9 
 3201  3204  3207  3209     9 
 3201  3204  3207  3210     9 
 3205  3204  3207  3208     9 
 3205  3204  3207  3209     9 
 3205  3204  3207  3210     9 
 3206  3204  3207  3208     9 
 3206  3204  3207  3209     9 
 3206  3204  3207  3210     9 
 3204  3207  3210  3211     9 
 3204  3207  3210  3212     9 
 3204  3207  3210  3213     9 
 3208  3207  3210  3211     9 
 3208  3207  3210  3212     9 
 3208  3207  3210  3213     9 
 3209  3207  3210  3211     9 
 3209  3207  3210  3212     9 
 3209  3207  3210  3213     9 
 3207  3210  3213  3214     9 
 3207  3210  3213  3215     9 
 3207  3210  3213  3216     9 
 3211  3210  3213  3214     9 
 3211  3210  3213  3215     9 
 3211  3210  3213  3216     9 
 3212  3210  3213  3214     9 
 3212  3210  3213  3215     9 
 3212  3210  3213  3216     9 
 3221  3217  3218  3219     9 
 3221  3217  3218  3220     9 
 3221  3217  3218  3233     9 
 3225  3217  3218  3219     9 
 3225  3217  3218  3220     9 
 3225  3217  3218  3233     9 
 3229  3217  3218  3219     9 
 3229  3217  3218  3220     9 
 3229  3217  3218  3233     9 
 3218  3217  3221  3222     9 
 3218  3217  3221  3223     9 
 3218  3217  3221  3224     9 
 3225  3217  3221  3222     9 
 3225  3217  3221  3223     9 
 3225  3217  3221  3224     9 
 3229  3217  3221  3222     9 
 3229  3217  3221  3223     9 
 3229  3217  3221  3224     9 
 3218  3217  3225  3226     9 
 3218  3217  3225  3227     9 
 3218  3217  3225  3228     9 
 3221  3217  3225  3226     9 
 3221  3217  3225  3227     9 
 3221  3217  3225  3228     9 
 3229  3217  3225  3226     9 
 3229  3217  3225  3227     9 
 3229  3217  3225  3228     9 
 3218  3217  3229  3230     9 
 3218  3217  3229  3231     9 
 3218  3217  3229  3232     9 
 3221  3217  3229  3230     9 
 3221  3217  3229  3231     9 
 3221  3217  3229  3232     9 
 3225  3217  3229  3230     9 
 3225  3217  3229  3231     9 
 3225  3217  3229  3232     9 
 3217  3218  3233  3234     9 
 3217  3218  3233  3235     9 
 3217  3218  3233  3239     9 
 3219  3218  3233  3234     9 
 3219  3218  3233  3235     9 
 3219  3218  3233  3239     9 
 3220  3218  3233  3234     9 
 3220  3218  3233  3235     9 
 3220  3218  3233  3239     9 
 3218  3233  3239  3236     9 
 3234  3233  3239  3236     9 
 3235  3233  3239  3236     9 
 3237  3236  3239  3233     9 
 3238  3236  3239  3233     9 
 3240  3236  3239  3233     9 
 3237  3236  3240  3241     9 
 3238  3236  3240  3241     9 
 3239  3236  3240  3241     9 
 3236  3240  3241  3242     9 
 3236  3240  3241  3243     9 
 3236  3240  3241  3244     9 
 3240  3241  3244  3245     9 
 3240  3241  3244  3246     9 
 3240  3241  3244  3252     9 
 3242  3241  3244  3245     9 
 3242  3241  3244  3246     9 
 3242  3241  3244  3252     9 
 3243  3241  3244  3245     9 
 3243  3241  3244  3246     9 
 3243  3241  3244  3252     9 
 3241  3244  3246  3247     9 
 3245  3244  3246  3247     9 
 3252  3244  3246  3247     9 
 3241  3244  3252  3253     9 
 3241  3244  3252  3254     9 
 3241  3244  3252  3255     9 
 3245  3244  3252  3253     9 
 3245  3244  3252  3254     9 
 3245  3244  3252  3255     9 
 3246  3244  3252  3253     9 
 3246  3244  3252  3254     9 
 3246  3244  3252  3255     9 
 3244  3246  3247  3248     9 
 3244  3246  3247  3249     9 
 3246  3247  3249  3250     9 
 3246  3247  3249  3251     9 
 3246  3247  3249  3261     9 
 3248  3247  3249  3250     9 
 3248  3247  3249  3251     9 
 3248  3247  3249  3261     9 
 3247  3249  3261  3262     9 
 3247  3249  3261  3263     9 
 3247  3249  3261  3264     9 
 3250  3249  3261  3262     9 
 3250  3249  3261  3263     9 
 3250  3249  3261  3264     9 
 3251  3249  3261  3262     9 
 3251  3249  3261  3263     9 
 3251  3249  3261  3264     9 
 3244  3252  3255  3256     9 
 3253  3252  3255  3256     9 
 3254  3252  3255  3256     9 
 3252  3255  3256  3257     9 
 3252  3255  3256  3258     9 
 3255  3256  3258  3259     9 
 3255  3256  3258  3260     9 
 3255  3256  3258  3308     9 
 3257  3256  3258  3259     9 
 3257  3256  3258  3260     9 
 3257  3256  3258  3308     9 
 3256  3258  3308  3309     9 
 3256  3258  3308  3310     9 
 3256  3258  3308  3311     9 
 3259  3258  3308  3309     9 
 3259  3258  3308  3310     9 
 3259  3258  3308  3311     9 
 3260  3258  3308  3309     9 
 3260  3258  3308  3310     9 
 3260  3258  3308  3311     9 
 3249  3261  3264  3265     9 
 3249  3261  3264  3266     9 
 3249  3261  3264  3267     9 
 3262  3261  3264  3265     9 
 3262  3261  3264  3266     9 
 3262  3261  3264  3267     9 
 3263  3261  3264  3265     9 
 3263  3261  3264  3266     9 
 3263  3261  3264  3267     9 
 3261  3264  3267  3268     9 
 3261  3264  3267  3269     9 
 3261  3264  3267  3270     9 
 3265  3264  3267  3268     9 
 3265  3264  3267  3269     9 
 3265  3264  3267  3270     9 
 3266  3264  3267  3268     9 
 3266  3264  3267  3269     9 
 3266  3264  3267  3270     9 
 3264  3267  3270  3271     9 
 3264  3267  3270  3272     9 
 3264  3267  3270  3273     9 
 3268  3267  3270  3271     9 
 3268  3267  3270  3272     9 
 3268  3267  3270  3273     9 
 3269  3267  3270  3271     9 
 3269  3267  3270  3272     9 
 3269  3267  3270  3273     9 
 3267  3270  3273  3274     9 
 3267  3270  3273  3275     9 
 3267  3270  3273  3276     9 
 3271  3270  3273  3274     9 
 3271  3270  3273  3275     9 
 3271  3270  3273  3276     9 
 3272  3270  3273  3274     9 
 3272  3270  3273  3275     9 
 3272  3270  3273  3276     9 
 3270  3273  3276  3277     9 
 3270  3273  3276  3278     9 
 3270  3273  3276  3279     9 
 3274  3273  3276  3277     9 
 3274  3273  3276  3278     9 
 3274  3273  3276  3279     9 
 3275  3273  3276  3277     9 
 3275  3273  3276  3278     9 
 3275  3273  3276  3279     9 
 3273  3276  3279  3280     9 
 3273  3276  3279  3281     9 
 3277  3276  3279  3280     9 
 3277  3276  3279  3281     9 
 3278  3276  3279  3280     9 
 3278  3276  3279  3281     9 
 3276  3279  3281  3282     9 
 3276  3279  3281  3283     9 
 3280  3279  3281  3282     9 
 3280  3279  3281  3283     9 
 3279  3281  3283  3284     9 
 3279  3281  3283  3285     9 
 3279  3281  3283  3286     9 
 3282  3281  3283  3284     9 
 3282  3281  3283  3285     9 
 3282  3281  3283  3286     9 
 3281  3283  3286  3287     9 
 3281  3283  3286  3288     9 
 3281  3283  3286  3289     9 
 3284  3283  3286  3287     9 
 3284  3283  3286  3288     9 
 3284  3283  3286  3289     9 
 3285  3283  3286  3287     9 
 3285  3283  3286  3288     9 
 3285  3283  3286  3289     9 
 3283  3286  3289  3290     9 
 3283  3286  3289  3291     9 
 3283  3286  3289  3292     9 
 3287  3286  3289  3290     9 
 3287  3286  3289  3291     9 
 3287  3286  3289  3292     9 
 3288  3286  3289  3290     9 
 3288  3286  3289  3291     9 
 3288  3286  3289  3292     9 
 3286  3289  3292  3293     9 
 3286  3289  3292  3294     9 
 3286  3289  3292  3295     9 
 3290  3289  3292  3293     9 
 3290  3289  3292  3294     9 
 3290  3289  3292  3295     9 
 3291  3289  3292  3293     9 
 3291  3289  3292  3294     9 
 3291  3289  3292  3295     9 
 3289  3292  3295  3296     9 
 3289  3292  3295  3297     9 
 3289  3292  3295  3298     9 
 3293  3292  3295  3296     9 
 3293  3292  3295  3297     9 
 3293  3292  3295  3298     9 
 3294  3292  3295  3296     9 
 3294  3292  3295  3297     9 
 3294  3292  3295  3298     9 
 3292  3295  3298  3299     9 
 3292  3295  3298  3300     9 
 3292  3295  3298  3301     9 
 3296  3295  3298  3299     9 
 3296  3295  3298  3300     9 
 3296  3295  3298  3301     9 
 3297  3295  3298  3299     9 
 3297  3295  3298  3300     9 
 3297  3295  3298  3301     9 
 3295  3298  3301  3302     9 
 3295  3298  3301  3303     9 
 3295  3298  3301  3304     9 
 3299  3298  3301  3302     9 
 3299  3298  3301  3303     9 
 3299  3298  3301  3304     9 
 3300  3298  3301  3302     9 
 3300  3298  3301  3303     9 
 3300  3298  3301  3304     9 
 3298  3301  3304  3305     9 
 3298  3301  3304  3306     9 
 3298  3301  3304  3307     9 
 3302  3301  3304  3305     9 
 3302  3301  3304  3306     9 
 3302  3301  3304  3307     9 
 3303  3301  3304  3305     9 
 3303  3301  3304  3306     9 
 3303  3301  3304  3307     9 
 3258  3308  3311  3312     9 
 3258  3308  3311  3313     9 
 3258  3308  3311  3314     9 
 3309  3308  3311  3312     9 
 3309  3308  3311  3313     9 
 3309  3308  3311  3314     9 
 3310  3308  3311  3312     9 
 3310  3308  3311  3313     9 
 3310  3308  3311  3314     9 
 3308  3311  3314  3315     9 
 3308  3311  3314  3316     9 
 3308  3311  3314  3317     9 
 3312  3311  3314  3315     9 
 3312  3311  3314  3316     9 
 3312  3311  3314  3317     9 
 3313  3311  3314  3315     9 
 3313  3311  3314  3316     9 
 3313  3311  3314  3317     9 
 3311  3314  3317  3318     9 
 3311  3314  3317  3319     9 
 3311  3314  3317  3320     9 
 3315  3314  3317  3318     9 
 3315  3314  3317  3319     9 
 3315  3314  3317  3320     9 
 3316  3314  3317  3318     9 
 3316  3314  3317  3319     9 
 3316  3314  3317  3320     9 
 3314  3317  3320  3321     9 
 3314  3317  3320  3322     9 
 3314  3317  3320  3323     9 
 3318  3317  3320  3321     9 
 3318  3317  3320  3322     9 
 3318  3317  3320  3323     9 
 3319  3317  3320  3321     9 
 3319  3317  3320  3322     9 
 3319  3317  3320  3323     9 
 3317  3320  3323  3324     9 
 3317  3320  3323  3325     9 
 3317  3320  3323  3326     9 
 3321  3320  3323  3324     9 
 3321  3320  3323  3325     9 
 3321  3320  3323  3326     9 
 3322  3320  3323  3324     9 
 3322  3320  3323  3325     9 
 3322  3320  3323  3326     9 
 3320  3323  3326  3327     9 
 3320  3323  3326  3328     9 
 3320  3323  3326  3329     9 
 3324  3323  3326  3327     9 
 3324  3323  3326  3328     9 
 3324  3323  3326  3329     9 
 3325  3323  3326  3327     9 
 3325  3323  3326  3328     9 
 3325  3323  3326  3329     9 
 3323  3326  3329  3330     9 
 3323  3326  3329  3331     9 
 3323  3326  3329  3332     9 
 3327  3326  3329  3330     9 
 3327  3326  3329  3331     9 
 3327  3326  3329  3332     9 
 3328  3326  3329  3330     9 
 3328  3326  3329  3331     9 
 3328  3326  3329  3332     9 
 3326  3329  3332  3333     9 
 3326  3329  3332  3334     9 
 3326  3329  3332  3335     9 
 3330  3329  3332  3333     9 
 3330  3329  3332  3334     9 
 3330  3329  3332  3335     9 
 3331  3329  3332  3333     9 
 3331  3329  3332  3334     9 
 3331  3329  3332  3335     9 
 3329  3332  3335  3336     9 
 3329  3332  3335  3337     9 
 3329  3332  3335  3338     9 
 3333  3332  3335  3336     9 
 3333  3332  3335  3337     9 
 3333  3332  3335  3338     9 
 3334  3332  3335  3336     9 
 3334  3332  3335  3337     9 
 3334  3332  3335  3338     9 
 3332  3335  3338  3339     9 
 3332  3335  3338  3340     9 
 3332  3335  3338  3341     9 
 3336  3335  3338  3339     9 
 3336  3335  3338  3340     9 
 3336  3335  3338  3341     9 
 3337  3335  3338  3339     9 
 3337  3335  3338  3340     9 
 3337  3335  3338  3341     9 
 3335  3338  3341  3342     9 
 3335  3338  3341  3343     9 
 3335  3338  3341  3344     9 
 3339  3338  3341  3342     9 
 3339  3338  3341  3343     9 
 3339  3338  3341  3344     9 
 3340  3338  3341  3342     9 
 3340  3338  3341  3343     9 
 3340  3338  3341  3344     9 
 3338  3341  3344  3345     9 
 3338  3341  3344  3346     9 
 3338  3341  3344  3347     9 
 3342  3341  3344  3345     9 
 3342  3341  3344  3346     9 
 3342  3341  3344  3347     9 
 3343  3341  3344  3345     9 
 3343  3341  3344  3346     9 
 3343  3341  3344  3347     9 
 3341  3344  3347  3348     9 
 3341  3344  3347  3349     9 
 3341  3344  3347  3350     9 
 3345  3344  3347  3348     9 
 3345  3344  3347  3349     9 
 3345  3344  3347  3350     9 
 3346  3344  3347  3348     9 
 3346  3344  3347  3349     9 
 3346  3344  3347  3350     9 
 3355  3351  3352  3353     9 
 3355  3351  3352  3354     9 
 3355  3351  3352  3367     9 
 3359  3351  3352  3353     9 
 3359  3351  3352  3354     9 
 3359  3351  3352  3367     9 
 3363  3351  3352  3353     9 
 3363  3351  3352  3354     9 
 3363  3351  3352  3367     9 
 3352  3351  3355  3356     9 
 3352  3351  3355  3357     9 
 3352  3351  3355  3358     9 
 3359  3351  3355  3356     9 
 3359  3351  3355  3357     9 
 3359  3351  3355  3358     9 
 3363  3351  3355  3356     9 
 3363  3351  3355  3357     9 
 3363  3351  3355  3358     9 
 3352  3351  3359  3360     9 
 3352  3351  3359  3361     9 
 3352  3351  3359  3362     9 
 3355  3351  3359  3360     9 
 3355  3351  3359  3361     9 
 3355  3351  3359  3362     9 
 3363  3351  3359  3360     9 
 3363  3351  3359  3361     9 
 3363  3351  3359  3362     9 
 3352  3351  3363  3364     9 
 3352  3351  3363  3365     9 
 3352  3351  3363  3366     9 
 3355  3351  3363  3364     9 
 3355  3351  3363  3365     9 
 3355  3351  3363  3366     9 
 3359  3351  3363  3364     9 
 3359  3351  3363  3365     9 
 3359  3351  3363  3366     9 
 3351  3352  3367  3368     9 
 3351  3352  3367  3369     9 
 3351  3352  3367  3373     9 
 3353  3352  3367  3368     9 
 3353  3352  3367  3369     9 
 3353  3352  3367  3373     9 
 3354  3352  3367  3368     9 
 3354  3352  3367  3369     9 
 3354  3352  3367  3373     9 
 3352  3367  3373  3370     9 
 3368  3367  3373  3370     9 
 3369  3367  3373  3370     9 
 3371  3370  3373  3367     9 
 3372  3370  3373  3367     9 
 3374  3370  3373  3367     9 
 3371  3370  3374  3375     9 
 3372  3370  3374  3375     9 
 3373  3370  3374  3375     9 
 3370  3374  3375  3376     9 
 3370  3374  3375  3377     9 
 3370  3374  3375  3378     9 
 3374  3375  3378  3379     9 
 3374  3375  3378  3380     9 
 3374  3375  3378  3386     9 
 3376  3375  3378  3379     9 
 3376  3375  3378  3380     9 
 3376  3375  3378  3386     9 
 3377  3375  3378  3379     9 
 3377  3375  3378  3380     9 
 3377  3375  3378  3386     9 
 3375  3378  3380  3381     9 
 3379  3378  3380  3381     9 
 3386  3378  3380  3381     9 
 3375  3378  3386  3387     9 
 3375  3378  3386  3388     9 
 3375  3378  3386  3389     9 
 3379  3378  3386  3387     9 
 3379  3378  3386  3388     9 
 3379  3378  3386  3389     9 
 3380  3378  3386  3387     9 
 3380  3378  3386  3388     9 
 3380  3378  3386  3389     9 
 3378  3380  3381  3382     9 
 3378  3380  3381  3383     9 
 3380  3381  3383  3384     9 
 3380  3381  3383  3385     9 
 3380  3381  3383  3395     9 
 3382  3381  3383  3384     9 
 3382  3381  3383  3385     9 
 3382  3381  3383  3395     9 
 3381  3383  3395  3396     9 
 3381  3383  3395  3397     9 
 3381  3383  3395  3398     9 
 3384  3383  3395  3396     9 
 3384  3383  3395  3397     9 
 3384  3383  3395  3398     9 
 3385  3383  3395  3396     9 
 3385  3383  3395  3397     9 
 3385  3383  3395  3398     9 
 3378  3386  3389  3390     9 
 3387  3386  3389  3390     9 
 3388  3386  3389  3390     9 
 3386  3389  3390  3391     9 
 3386  3389  3390  3392     9 
 3389  3390  3392  3393     9 
 3389  3390  3392  3394     9 
 3389  3390  3392  3442     9 
 3391  3390  3392  3393     9 
 3391  3390  3392  3394     9 
 3391  3390  3392  3442     9 
 3390  3392  3442  3443     9 
 3390  3392  3442  3444     9 
 3390  3392  3442  3445     9 
 3393  3392  3442  3443     9 
 3393  3392  3442  3444     9 
 3393  3392  3442  3445     9 
 3394  3392  3442  3443     9 
 3394  3392  3442  3444     9 
 3394  3392  3442  3445     9 
 3383  3395  3398  3399     9 
 3383  3395  3398  3400     9 
 3383  3395  3398  3401     9 
 3396  3395  3398  3399     9 
 3396  3395  3398  3400     9 
 3396  3395  3398  3401     9 
 3397  3395  3398  3399     9 
 3397  3395  3398  3400     9 
 3397  3395  3398  3401     9 
 3395  3398  3401  3402     9 
 3395  3398  3401  3403     9 
 3395  3398  3401  3404     9 
 3399  3398  3401  3402     9 
 3399  3398  3401  3403     9 
 3399  3398  3401  3404     9 
 3400  3398  3401  3402     9 
 3400  3398  3401  3403     9 
 3400  3398  3401  3404     9 
 3398  3401  3404  3405     9 
 3398  3401  3404  3406     9 
 3398  3401  3404  3407     9 
 3402  3401  3404  3405     9 
 3402  3401  3404  3406     9 
 3402  3401  3404  3407     9 
 3403  3401  3404  3405     9 
 3403  3401  3404  3406     9 
 3403  3401  3404  3407     9 
 3401  3404  3407  3408     9 
 3401  3404  3407  3409     9 
 3401  3404  3407  3410     9 
 3405  3404  3407  3408     9 
 3405  3404  3407  3409     9 
 3405  3404  3407  3410     9 
 3406  3404  3407  3408     9 
 3406  3404  3407  3409     9 
 3406  3404  3407  3410     9 
 3404  3407  3410  3411     9 
 3404  3407  3410  3412     9 
 3404  3407  3410  3413     9 
 3408  3407  3410  3411     9 
 3408  3407  3410  3412     9 
 3408  3407  3410  3413     9 
 3409  3407  3410  3411     9 
 3409  3407  3410  3412     9 
 3409  3407  3410  3413     9 
 3407  3410  3413  3414     9 
 3407  3410  3413  3415     9 
 3411  3410  3413  3414     9 
 3411  3410  3413  3415     9 
 3412  3410  3413  3414     9 
 3412  3410  3413  3415     9 
 3410  3413  3415  3416     9 
 3410  3413  3415  3417     9 
 3414  3413  3415  3416     9 
 3414  3413  3415  3417     9 
 3413  3415  3417  3418     9 
 3413  3415  3417  3419     9 
 3413  3415  3417  3420     9 
 3416  3415  3417  3418     9 
 3416  3415  3417  3419     9 
 3416  3415  3417  3420     9 
 3415  3417  3420  3421     9 
 3415  3417  3420  3422     9 
 3415  3417  3420  3423     9 
 3418  3417  3420  3421     9 
 3418  3417  3420  3422     9 
 3418  3417  3420  3423     9 
 3419  3417  3420  3421     9 
 3419  3417  3420  3422     9 
 3419  3417  3420  3423     9 
 3417  3420  3423  3424     9 
 3417  3420  3423  3425     9 
 3417  3420  3423  3426     9 
 3421  3420  3423  3424     9 
 3421  3420  3423  3425     9 
 3421  3420  3423  3426     9 
 3422  3420  3423  3424     9 
 3422  3420  3423  3425     9 
 3422  3420  3423  3426     9 
 3420  3423  3426  3427     9 
 3420  3423  3426  3428     9 
 3420  3423  3426  3429     9 
 3424  3423  3426  3427     9 
 3424  3423  3426  3428     9 
 3424  3423  3426  3429     9 
 3425  3423  3426  3427     9 
 3425  3423  3426  3428     9 
 3425  3423  3426  3429     9 
 3423  3426  3429  3430     9 
 3423  3426  3429  3431     9 
 3423  3426  3429  3432     9 
 3427  3426  3429  3430     9 
 3427  3426  3429  3431     9 
 3427  3426  3429  3432     9 
 3428  3426  3429  3430     9 
 3428  3426  3429  3431     9 
 3428  3426  3429  3432     9 
 3426  3429  3432  3433     9 
 3426  3429  3432  3434     9 
 3426  3429  3432  3435     9 
 3430  3429  3432  3433     9 
 3430  3429  3432  3434     9 
 3430  3429  3432  3435     9 
 3431  3429  3432  3433     9 
 3431  3429  3432  3434     9 
 3431  3429  3432  3435     9 
 3429  3432  3435  3436     9 
 3429  3432  3435  3437     9 
 3429  3432  3435  3438     9 
 3433  3432  3435  3436     9 
 3433  3432  3435  3437     9 
 3433  3432  3435  3438     9 
 3434  3432  3435  3436     9 
 3434  3432  3435  3437     9 
 3434  3432  3435  3438     9 
 3432  3435  3438  3439     9 
 3432  3435  3438  3440     9 
 3432  3435  3438  3441     9 
 3436  3435  3438  3439     9 
 3436  3435  3438  3440     9 
 3436  3435  3438  3441     9 
 3437  3435  3438  3439     9 
 3437  3435  3438  3440     9 
 3437  3435  3438  3441     9 
 3392  3442  3445  3446     9 
 3392  3442  3445  3447     9 
 3392  3442  3445  3448     9 
 3443  3442  3445  3446     9 
 3443  3442  3445  3447     9 
 3443  3442  3445  3448     9 
 3444  3442  3445  3446     9 
 3444  3442  3445  3447     9 
 3444  3442  3445  3448     9 
 3442  3445  3448  3449     9 
 3442  3445  3448  3450     9 
 3442  3445  3448  3451     9 
 3446  3445  3448  3449     9 
 3446  3445  3448  3450     9 
 3446  3445  3448  3451     9 
 3447  3445  3448  3449     9 
 3447  3445  3448  3450     9 
 3447  3445  3448  3451     9 
 3445  3448  3451  3452     9 
 3445  3448  3451  3453     9 
 3445  3448  3451  3454     9 
 3449  3448  3451  3452     9 
 3449  3448  3451  3453     9 
 3449  3448  3451  3454     9 
 3450  3448  3451  3452     9 
 3450  3448  3451  3453     9 
 3450  3448  3451  3454     9 
 3448  3451  3454  3455     9 
 3448  3451  3454  3456     9 
 3448  3451  3454  3457     9 
 3452  3451  3454  3455     9 
 3452  3451  3454  3456     9 
 3452  3451  3454  3457     9 
 3453  3451  3454  3455     9 
 3453  3451  3454  3456     9 
 3453  3451  3454  3457     9 
 3451  3454  3457  3458     9 
 3451  3454  3457  3459     9 
 3451  3454  3457  3460     9 
 3455  3454  3457  3458     9 
 3455  3454  3457  3459     9 
 3455  3454  3457  3460     9 
 3456  3454  3457  3458     9 
 3456  3454  3457  3459     9 
 3456  3454  3457  3460     9 
 3454  3457  3460  3461     9 
 3454  3457  3460  3462     9 
 3454  3457  3460  3463     9 
 3458  3457  3460  3461     9 
 3458  3457  3460  3462     9 
 3458  3457  3460  3463     9 
 3459  3457  3460  3461     9 
 3459  3457  3460  3462     9 
 3459  3457  3460  3463     9 
 3457  3460  3463  3464     9 
 3457  3460  3463  3465     9 
 3457  3460  3463  3466     9 
 3461  3460  3463  3464     9 
 3461  3460  3463  3465     9 
 3461  3460  3463  3466     9 
 3462  3460  3463  3464     9 
 3462  3460  3463  3465     9 
 3462  3460  3463  3466     9 
 3460  3463  3466  3467     9 
 3460  3463  3466  3468     9 
 3460  3463  3466  3469     9 
 3464  3463  3466  3467     9 
 3464  3463  3466  3468     9 
 3464  3463  3466  3469     9 
 3465  3463  3466  3467     9 
 3465  3463  3466  3468     9 
 3465  3463  3466  3469     9 
 3463  3466  3469  3470     9 
 3463  3466  3469  3471     9 
 3463  3466  3469  3472     9 
 3467  3466  3469  3470     9 
 3467  3466  3469  3471     9 
 3467  3466  3469  3472     9 
 3468  3466  3469  3470     9 
 3468  3466  3469  3471     9 
 3468  3466  3469  3472     9 
 3466  3469  3472  3473     9 
 3466  3469  3472  3474     9 
 3466  3469  3472  3475     9 
 3470  3469  3472  3473     9 
 3470  3469  3472  3474     9 
 3470  3469  3472  3475     9 
 3471  3469  3472  3473     9 
 3471  3469  3472  3474     9 
 3471  3469  3472  3475     9 
 3469  3472  3475  3476     9 
 3469  3472  3475  3477     9 
 3469  3472  3475  3478     9 
 3473  3472  3475  3476     9 
 3473  3472  3475  3477     9 
 3473  3472  3475  3478     9 
 3474  3472  3475  3476     9 
 3474  3472  3475  3477     9 
 3474  3472  3475  3478     9 
 3472  3475  3478  3479     9 
 3472  3475  3478  3480     9 
 3472  3475  3478  3481     9 
 3476  3475  3478  3479     9 
 3476  3475  3478  3480     9 
 3476  3475  3478  3481     9 
 3477  3475  3478  3479     9 
 3477  3475  3478  3480     9 
 3477  3475  3478  3481     9 
 3475  3478  3481  3482     9 
 3475  3478  3481  3483     9 
 3475  3478  3481  3484     9 
 3479  3478  3481  3482     9 
 3479  3478  3481  3483     9 
 3479  3478  3481  3484     9 
 3480  3478  3481  3482     9 
 3480  3478  3481  3483     9 
 3480  3478  3481  3484     9 
 3489  3485  3486  3487     9 
 3489  3485  3486  3488     9 
 3489  3485  3486  3501     9 
 3493  3485  3486  3487     9 
 3493  3485  3486  3488     9 
 3493  3485  3486  3501     9 
 3497  3485  3486  3487     9 
 3497  3485  3486  3488     9 
 3497  3485  3486  3501     9 
 3486  3485  3489  3490     9 
 3486  3485  3489  3491     9 
 3486  3485  3489  3492     9 
 3493  3485  3489  3490     9 
 3493  3485  3489  3491     9 
 3493  3485  3489  3492     9 
 3497  3485  3489  3490     9 
 3497  3485  3489  3491     9 
 3497  3485  3489  3492     9 
 3486  3485  3493  3494     9 
 3486  3485  3493  3495     9 
 3486  3485  3493  3496     9 
 3489  3485  3493  3494     9 
 3489  3485  3493  3495     9 
 3489  3485  3493  3496     9 
 3497  3485  3493  3494     9 
 3497  3485  3493  3495     9 
 3497  3485  3493  3496     9 
 3486  3485  3497  3498     9 
 3486  3485  3497  3499     9 
 3486  3485  3497  3500     9 
 3489  3485  3497  3498     9 
 3489  3485  3497  3499     9 
 3489  3485  3497  3500     9 
 3493  3485  3497  3498     9 
 3493  3485  3497  3499     9 
 3493  3485  3497  3500     9 
 3485  3486  3501  3502     9 
 3485  3486  3501  3503     9 
 3485  3486  3501  3507     9 
 3487  3486  3501  3502     9 
 3487  3486  3501  3503     9 
 3487  3486  3501  3507     9 
 3488  3486  3501  3502     9 
 3488  3486  3501  3503     9 
 3488  3486  3501  3507     9 
 3486  3501  3507  3504     9 
 3502  3501  3507  3504     9 
 3503  3501  3507  3504     9 
 3505  3504  3507  3501     9 
 3506  3504  3507  3501     9 
 3508  3504  3507  3501     9 
 3505  3504  3508  3509     9 
 3506  3504  3508  3509     9 
 3507  3504  3508  3509     9 
 3504  3508  3509  3510     9 
 3504  3508  3509  3511     9 
 3504  3508  3509  3512     9 
 3508  3509  3512  3513     9 
 3508  3509  3512  3514     9 
 3508  3509  3512  3520     9 
 3510  3509  3512  3513     9 
 3510  3509  3512  3514     9 
 3510  3509  3512  3520     9 
 3511  3509  3512  3513     9 
 3511  3509  3512  3514     9 
 3511  3509  3512  3520     9 
 3509  3512  3514  3515     9 
 3513  3512  3514  3515     9 
 3520  3512  3514  3515     9 
 3509  3512  3520  3521     9 
 3509  3512  3520  3522     9 
 3509  3512  3520  3523     9 
 3513  3512  3520  3521     9 
 3513  3512  3520  3522     9 
 3513  3512  3520  3523     9 
 3514  3512  3520  3521     9 
 3514  3512  3520  3522     9 
 3514  3512  3520  3523     9 
 3512  3514  3515  3516     9 
 3512  3514  3515  3517     9 
 3514  3515  3517  3518     9 
 3514  3515  3517  3519     9 
 3514  3515  3517  3529     9 
 3516  3515  3517  3518     9 
 3516  3515  3517  3519     9 
 3516  3515  3517  3529     9 
 3515  3517  3529  3530     9 
 3515  3517  3529  3531     9 
 3515  3517  3529  3532     9 
 3518  3517  3529  3530     9 
 3518  3517  3529  3531     9 
 3518  3517  3529  3532     9 
 3519  3517  3529  3530     9 
 3519  3517  3529  3531     9 
 3519  3517  3529  3532     9 
 3512  3520  3523  3524     9 
 3521  3520  3523  3524     9 
 3522  3520  3523  3524     9 
 3520  3523  3524  3525     9 
 3520  3523  3524  3526     9 
 3523  3524  3526  3527     9 
 3523  3524  3526  3528     9 
 3523  3524  3526  3576     9 
 3525  3524  3526  3527     9 
 3525  3524  3526  3528     9 
 3525  3524  3526  3576     9 
 3524  3526  3576  3577     9 
 3524  3526  3576  3578     9 
 3524  3526  3576  3579     9 
 3527  3526  3576  3577     9 
 3527  3526  3576  3578     9 
 3527  3526  3576  3579     9 
 3528  3526  3576  3577     9 
 3528  3526  3576  3578     9 
 3528  3526  3576  3579     9 
 3517  3529  3532  3533     9 
 3517  3529  3532  3534     9 
 3517  3529  3532  3535     9 
 3530  3529  3532  3533     9 
 3530  3529  3532  3534     9 
 3530  3529  3532  3535     9 
 3531  3529  3532  3533     9 
 3531  3529  3532  3534     9 
 3531  3529  3532  3535     9 
 3529  3532  3535  3536     9 
 3529  3532  3535  3537     9 
 3529  3532  3535  3538     9 
 3533  3532  3535  3536     9 
 3533  3532  3535  3537     9 
 3533  3532  3535  3538     9 
 3534  3532  3535  3536     9 
 3534  3532  3535  3537     9 
 3534  3532  3535  3538     9 
 3532  3535  3538  3539     9 
 3532  3535  3538  3540     9 
 3532  3535  3538  3541     9 
 3536  3535  3538  3539     9 
 3536  3535  3538  3540     9 
 3536  3535  3538  3541     9 
 3537  3535  3538  3539     9 
 3537  3535  3538  3540     9 
 3537  3535  3538  3541     9 
 3535  3538  3541  3542     9 
 3535  3538  3541  3543     9 
 3535  3538  3541  3544     9 
 3539  3538  3541  3542     9 
 3539  3538  3541  3543     9 
 3539  3538  3541  3544     9 
 3540  3538  3541  3542     9 
 3540  3538  3541  3543     9 
 3540  3538  3541  3544     9 
 3538  3541  3544  3545     9 
 3538  3541  3544  3546     9 
 3538  3541  3544  3547     9 
 3542  3541  3544  3545     9 
 3542  3541  3544  3546     9 
 3542  3541  3544  3547     9 
 3543  3541  3544  3545     9 
 3543  3541  3544  3546     9 
 3543  3541  3544  3547     9 
 3541  3544  3547  3548     9 
 3541  3544  3547  3549     9 
 3545  3544  3547  3548     9 
 3545  3544  3547  3549     9 
 3546  3544  3547  3548     9 
 3546  3544  3547  3549     9 
 3544  3547  3549  3550     9 
 3544  3547  3549  3551     9 
 3548  3547  3549  3550     9 
 3548  3547  3549  3551     9 
 3547  3549  3551  3552     9 
 3547  3549  3551  3553     9 
 3547  3549  3551  3554     9 
 3550  3549  3551  3552     9 
 3550  3549  3551  3553     9 
 3550  3549  3551  3554     9 
 3549  3551  3554  3555     9 
 3549  3551  3554  3556     9 
 3549  3551  3554  3557     9 
 3552  3551  3554  3555     9 
 3552  3551  3554  3556     9 
 3552  3551  3554  3557     9 
 3553  3551  3554  3555     9 
 3553  3551  3554  3556     9 
 3553  3551  3554  3557     9 
 3551  3554  3557  3558     9 
 3551  3554  3557  3559     9 
 3551  3554  3557  3560     9 
 3555  3554  3557  3558     9 
 3555  3554  3557  3559     9 
 3555  3554  3557  3560     9 
 3556  3554  3557  3558     9 
 3556  3554  3557  3559     9 
 3556  3554  3557  3560     9 
 3554  3557  3560  3561     9 
 3554  3557  3560  3562     9 
 3554  3557  3560  3563     9 
 3558  3557  3560  3561     9 
 3558  3557  3560  3562     9 
 3558  3557  3560  3563     9 
 3559  3557  3560  3561     9 
 3559  3557  3560  3562     9 
 3559  3557  3560  3563     9 
 3557  3560  3563  3564     9 
 3557  3560  3563  3565     9 
 3557  3560  3563  3566     9 
 3561  3560  3563  3564     9 
 3561  3560  3563  3565     9 
 3561  3560  3563  3566     9 
 3562  3560  3563  3564     9 
 3562  3560  3563  3565     9 
 3562  3560  3563  3566     9 
 3560  3563  3566  3567     9 
 3560  3563  3566  3568     9 
 3560  3563  3566  3569     9 
 3564  3563  3566  3567     9 
 3564  3563  3566  3568     9 
 3564  3563  3566  3569     9 
 3565  3563  3566  3567     9 
 3565  3563  3566  3568     9 
 3565  3563  3566  3569     9 
 3563  3566  3569  3570     9 
 3563  3566  3569  3571     9 
 3563  3566  3569  3572     9 
 3567  3566  3569  3570     9 
 3567  3566  3569  3571     9 
 3567  3566  3569  3572     9 
 3568  3566  3569  3570     9 
 3568  3566  3569  3571     9 
 3568  3566  3569  3572     9 
 3566  3569  3572  3573     9 
 3566  3569  3572  3574     9 
 3566  3569  3572  3575     9 
 3570  3569  3572  3573     9 
 3570  3569  3572  3574     9 
 3570  3569  3572  3575     9 
 3571  3569  3572  3573     9 
 3571  3569  3572  3574     9 
 3571  3569  3572  3575     9 
 3526  3576  3579  3580     9 
 3526  3576  3579  3581     9 
 3526  3576  3579  3582     9 
 3577  3576  3579  3580     9 
 3577  3576  3579  3581     9 
 3577  3576  3579  3582     9 
 3578  3576  3579  3580     9 
 3578  3576  3579  3581     9 
 3578  3576  3579  3582     9 
 3576  3579  3582  3583     9 
 3576  3579  3582  3584     9 
 3576  3579  3582  3585     9 
 3580  3579  3582  3583     9 
 3580  3579  3582  3584     9 
 3580  3579  3582  3585     9 
 3581  3579  3582  3583     9 
 3581  3579  3582  3584     9 
 3581  3579  3582  3585     9 
 3579  3582  3585  3586     9 
 3579  3582  3585  3587     9 
 3579  3582  3585  3588     9 
 3583  3582  3585  3586     9 
 3583  3582  3585  3587     9 
 3583  3582  3585  3588     9 
 3584  3582  3585  3586     9 
 3584  3582  3585  3587     9 
 3584  3582  3585  3588     9 
 3582  3585  3588  3589     9 
 3582  3585  3588  3590     9 
 3582  3585  3588  3591     9 
 3586  3585  3588  3589     9 
 3586  3585  3588  3590     9 
 3586  3585  3588  3591     9 
 3587  3585  3588  3589     9 
 3587  3585  3588  3590     9 
 3587  3585  3588  3591     9 
 3585  3588  3591  3592     9 
 3585  3588  3591  3593     9 
 3585  3588  3591  3594     9 
 3589  3588  3591  3592     9 
 3589  3588  3591  3593     9 
 3589  3588  3591  3594     9 
 3590  3588  3591  3592     9 
 3590  3588  3591  3593     9 
 3590  3588  3591  3594     9 
 3588  3591  3594  3595     9 
 3588  3591  3594  3596     9 
 3588  3591  3594  3597     9 
 3592  3591  3594  3595     9 
 3592  3591  3594  3596     9 
 3592  3591  3594  3597     9 
 3593  3591  3594  3595     9 
 3593  3591  3594  3596     9 
 3593  3591  3594  3597     9 
 3591  3594  3597  3598     9 
 3591  3594  3597  3599     9 
 3591  3594  3597  3600     9 
 3595  3594  3597  3598     9 
 3595  3594  3597  3599     9 
 3595  3594  3597  3600     9 
 3596  3594  3597  3598     9 
 3596  3594  3597  3599     9 
 3596  3594  3597  3600     9 
 3594  3597  3600  3601     9 
 3594  3597  3600  3602     9 
 3594  3597  3600  3603     9 
 3598  3597  3600  3601     9 
 3598  3597  3600  3602     9 
 3598  3597  3600  3603     9 
 3599  3597  3600  3601     9 
 3599  3597  3600  3602     9 
 3599  3597  3600  3603     9 
 3597  3600  3603  3604     9 
 3597  3600  3603  3605     9 
 3597  3600  3603  3606     9 
 3601  3600  3603  3604     9 
 3601  3600  3603  3605     9 
 3601  3600  3603  3606     9 
 3602  3600  3603  3604     9 
 3602  3600  3603  3605     9 
 3602  3600  3603  3606     9 
 3600  3603  3606  3607     9 
 3600  3603  3606  3608     9 
 3600  3603  3606  3609     9 
 3604  3603  3606  3607     9 
 3604  3603  3606  3608     9 
 3604  3603  3606  3609     9 
 3605  3603  3606  3607     9 
 3605  3603  3606  3608     9 
 3605  3603  3606  3609     9 
 3603  3606  3609  3610     9 
 3603  3606  3609  3611     9 
 3603  3606  3609  3612     9 
 3607  3606  3609  3610     9 
 3607  3606  3609  3611     9 
 3607  3606  3609  3612     9 
 3608  3606  3609  3610     9 
 3608  3606  3609  3611     9 
 3608  3606  3609  3612     9 
 3606  3609  3612  3613     9 
 3606  3609  3612  3614     9 
 3606  3609  3612  3615     9 
 3610  3609  3612  3613     9 
 3610  3609  3612  3614     9 
 3610  3609  3612  3615     9 
 3611  3609  3612  3613     9 
 3611  3609  3612  3614     9 
 3611  3609  3612  3615     9 
 3609  3612  3615  3616     9 
 3609  3612  3615  3617     9 
 3609  3612  3615  3618     9 
 3613  3612  3615  3616     9 
 3613  3612  3615  3617     9 
 3613  3612  3615  3618     9 
 3614  3612  3615  3616     9 
 3614  3612  3615  3617     9 
 3614  3612  3615  3618     9 
 3623  3619  3620  3621     9 
 3623  3619  3620  3622     9 
 3623  3619  3620  3635     9 
 3627  3619  3620  3621     9 
 3627  3619  3620  3622     9 
 3627  3619  3620  3635     9 
 3631  3619  3620  3621     9 
 3631  3619  3620  3622     9 
 3631  3619  3620  3635     9 
 3620  3619  3623  3624     9 
 3620  3619  3623  3625     9 
 3620  3619  3623  3626     9 
 3627  3619  3623  3624     9 
 3627  3619  3623  3625     9 
 3627  3619  3623  3626     9 
 3631  3619  3623  3624     9 
 3631  3619  3623  3625     9 
 3631  3619  3623  3626     9 
 3620  3619  3627  3628     9 
 3620  3619  3627  3629     9 
 3620  3619  3627  3630     9 
 3623  3619  3627  3628     9 
 3623  3619  3627  3629     9 
 3623  3619  3627  3630     9 
 3631  3619  3627  3628     9 
 3631  3619  3627  3629     9 
 3631  3619  3627  3630     9 
 3620  3619  3631  3632     9 
 3620  3619  3631  3633     9 
 3620  3619  3631  3634     9 
 3623  3619  3631  3632     9 
 3623  3619  3631  3633     9 
 3623  3619  3631  3634     9 
 3627  3619  3631  3632     9 
 3627  3619  3631  3633     9 
 3627  3619  3631  3634     9 
 3619  3620  3635  3636     9 
 3619  3620  3635  3637     9 
 3619  3620  3635  3641     9 
 3621  3620  3635  3636     9 
 3621  3620  3635  3637     9 
 3621  3620  3635  3641     9 
 3622  3620  3635  3636     9 
 3622  3620  3635  3637     9 
 3622  3620  3635  3641     9 
 3620  3635  3641  3638     9 
 3636  3635  3641  3638     9 
 3637  3635  3641  3638     9 
 3639  3638  3641  3635     9 
 3640  3638  3641  3635     9 
 3642  3638  3641  3635     9 
 3639  3638  3642  3643     9 
 3640  3638  3642  3643     9 
 3641  3638  3642  3643     9 
 3638  3642  3643  3644     9 
 3638  3642  3643  3645     9 
 3638  3642  3643  3646     9 
 3642  3643  3646  3647     9 
 3642  3643  3646  3648     9 
 3642  3643  3646  3654     9 
 3644  3643  3646  3647     9 
 3644  3643  3646  3648     9 
 3644  3643  3646  3654     9 
 3645  3643  3646  3647     9 
 3645  3643  3646  3648     9 
 3645  3643  3646  3654     9 
 3643  3646  3648  3649     9 
 3647  3646  3648  3649     9 
 3654  3646  3648  3649     9 
 3643  3646  3654  3655     9 
 3643  3646  3654  3656     9 
 3643  3646  3654  3657     9 
 3647  3646  3654  3655     9 
 3647  3646  3654  3656     9 
 3647  3646  3654  3657     9 
 3648  3646  3654  3655     9 
 3648  3646  3654  3656     9 
 3648  3646  3654  3657     9 
 3646  3648  3649  3650     9 
 3646  3648  3649  3651     9 
 3648  3649  3651  3652     9 
 3648  3649  3651  3653     9 
 3648  3649  3651  3663     9 
 3650  3649  3651  3652     9 
 3650  3649  3651  3653     9 
 3650  3649  3651  3663     9 
 3649  3651  3663  3664     9 
 3649  3651  3663  3665     9 
 3649  3651  3663  3666     9 
 3652  3651  3663  3664     9 
 3652  3651  3663  3665     9 
 3652  3651  3663  3666     9 
 3653  3651  3663  3664     9 
 3653  3651  3663  3665     9 
 3653  3651  3663  3666     9 
 3646  3654  3657  3658     9 
 3655  3654  3657  3658     9 
 3656  3654  3657  3658     9 
 3654  3657  3658  3659     9 
 3654  3657  3658  3660     9 
 3657  3658  3660  3661     9 
 3657  3658  3660  3662     9 
 3657  3658  3660  3710     9 
 3659  3658  3660  3661     9 
 3659  3658  3660  3662     9 
 3659  3658  3660  3710     9 
 3658  3660  3710  3711     9 
 3658  3660  3710  3712     9 
 3658  3660  3710  3713     9 
 3661  3660  3710  3711     9 
 3661  3660  3710  3712     9 
 3661  3660  3710  3713     9 
 3662  3660  3710  3711     9 
 3662  3660  3710  3712     9 
 3662  3660  3710  3713     9 
 3651  3663  3666  3667     9 
 3651  3663  3666  3668     9 
 3651  3663  3666  3669     9 
 3664  3663  3666  3667     9 
 3664  3663  3666  3668     9 
 3664  3663  3666  3669     9 
 3665  3663  3666  3667     9 
 3665  3663  3666  3668     9 
 3665  3663  3666  3669     9 
 3663  3666  3669  3670     9 
 3663  3666  3669  3671     9 
 3663  3666  3669  3672     9 
 3667  3666  3669  3670     9 
 3667  3666  3669  3671     9 
 3667  3666  3669  3672     9 
 3668  3666  3669  3670     9 
 3668  3666  3669  3671     9 
 3668  3666  3669  3672     9 
 3666  3669  3672  3673     9 
 3666  3669  3672  3674     9 
 3666  3669  3672  3675     9 
 3670  3669  3672  3673     9 
 3670  3669  3672  3674     9 
 3670  3669  3672  3675     9 
 3671  3669  3672  3673     9 
 3671  3669  3672  3674     9 
 3671  3669  3672  3675     9 
 3669  3672  3675  3676     9 
 3669  3672  3675  3677     9 
 3669  3672  3675  3678     9 
 3673  3672  3675  3676     9 
 3673  3672  3675  3677     9 
 3673  3672  3675  3678     9 
 3674  3672  3675  3676     9 
 3674  3672  3675  3677     9 
 3674  3672  3675  3678     9 
 3672  3675  3678  3679     9 
 3672  3675  3678  3680     9 
 3672  3675  3678  3681     9 
 3676  3675  3678  3679     9 
 3676  3675  3678  3680     9 
 3676  3675  3678  3681     9 
 3677  3675  3678  3679     9 
 3677  3675  3678  3680     9 
 3677  3675  3678  3681     9 
 3675  3678  3681  3682     9 
 3675  3678  3681  3683     9 
 3679  3678  3681  3682     9 
 3679  3678  3681  3683     9 
 3680  3678  3681  3682     9 
 3680  3678  3681  3683     9 
 3678  3681  3683  3684     9 
 3678  3681  3683  3685     9 
 3682  3681  3683  3684     9 
 3682  3681  3683  3685     9 
 3681  3683  3685  3686     9 
 3681  3683  3685  3687     9 
 3681  3683  3685  3688     9 
 3684  3683  3685  3686     9 
 3684  3683  3685  3687     9 
 3684  3683  3685  3688     9 
 3683  3685  3688  3689     9 
 3683  3685  3688  3690     9 
 3683  3685  3688  3691     9 
 3686  3685  3688  3689     9 
 3686  3685  3688  3690     9 
 3686  3685  3688  3691     9 
 3687  3685  3688  3689     9 
 3687  3685  3688  3690     9 
 3687  3685  3688  3691     9 
 3685  3688  3691  3692     9 
 3685  3688  3691  3693     9 
 3685  3688  3691  3694     9 
 3689  3688  3691  3692     9 
 3689  3688  3691  3693     9 
 3689  3688  3691  3694     9 
 3690  3688  3691  3692     9 
 3690  3688  3691  3693     9 
 3690  3688  3691  3694     9 
 3688  3691  3694  3695     9 
 3688  3691  3694  3696     9 
 3688  3691  3694  3697     9 
 3692  3691  3694  3695     9 
 3692  3691  3694  3696     9 
 3692  3691  3694  3697     9 
 3693  3691  3694  3695     9 
 3693  3691  3694  3696     9 
 3693  3691  3694  3697     9 
 3691  3694  3697  3698     9 
 3691  3694  3697  3699     9 
 3691  3694  3697  3700     9 
 3695  3694  3697  3698     9 
 3695  3694  3697  3699     9 
 3695  3694  3697  3700     9 
 3696  3694  3697  3698     9 
 3696  3694  3697  3699     9 
 3696  3694  3697  3700     9 
 3694  3697  3700  3701     9 
 3694  3697  3700  3702     9 
 3694  3697  3700  3703     9 
 3698  3697  3700  3701     9 
 3698  3697  3700  3702     9 
 3698  3697  3700  3703     9 
 3699  3697  3700  3701     9 
 3699  3697  3700  3702     9 
 3699  3697  3700  3703     9 
 3697  3700  3703  3704     9 
 3697  3700  3703  3705     9 
 3697  3700  3703  3706     9 
 3701  3700  3703  3704     9 
 3701  3700  3703  3705     9 
 3701  3700  3703  3706     9 
 3702  3700  3703  3704     9 
 3702  3700  3703  3705     9 
 3702  3700  3703  3706     9 
 3700  3703  3706  3707     9 
 3700  3703  3706  3708     9 
 3700  3703  3706  3709     9 
 3704  3703  3706  3707     9 
 3704  3703  3706  3708     9 
 3704  3703  3706  3709     9 
 3705  3703  3706  3707     9 
 3705  3703  3706  3708     9 
 3705  3703  3706  3709     9 
 3660  3710  3713  3714     9 
 3660  3710  3713  3715     9 
 3660  3710  3713  3716     9 
 3711  3710  3713  3714     9 
 3711  3710  3713  3715     9 
 3711  3710  3713  3716     9 
 3712  3710  3713  3714     9 
 3712  3710  3713  3715     9 
 3712  3710  3713  3716     9 
 3710  3713  3716  3717     9 
 3710  3713  3716  3718     9 
 3710  3713  3716  3719     9 
 3714  3713  3716  3717     9 
 3714  3713  3716  3718     9 
 3714  3713  3716  3719     9 
 3715  3713  3716  3717     9 
 3715  3713  3716  3718     9 
 3715  3713  3716  3719     9 
 3713  3716  3719  3720     9 
 3713  3716  3719  3721     9 
 3713  3716  3719  3722     9 
 3717  3716  3719  3720     9 
 3717  3716  3719  3721     9 
 3717  3716  3719  3722     9 
 3718  3716  3719  3720     9 
 3718  3716  3719  3721     9 
 3718  3716  3719  3722     9 
 3716  3719  3722  3723     9 
 3716  3719  3722  3724     9 
 3716  3719  3722  3725     9 
 3720  3719  3722  3723     9 
 3720  3719  3722  3724     9 
 3720  3719  3722  3725     9 
 3721  3719  3722  3723     9 
 3721  3719  3722  3724     9 
 3721  3719  3722  3725     9 
 3719  3722  3725  3726     9 
 3719  3722  3725  3727     9 
 3719  3722  3725  3728     9 
 3723  3722  3725  3726     9 
 3723  3722  3725  3727     9 
 3723  3722  3725  3728     9 
 3724  3722  3725  3726     9 
 3724  3722  3725  3727     9 
 3724  3722  3725  3728     9 
 3722  3725  3728  3729     9 
 3722  3725  3728  3730     9 
 3722  3725  3728  3731     9 
 3726  3725  3728  3729     9 
 3726  3725  3728  3730     9 
 3726  3725  3728  3731     9 
 3727  3725  3728  3729     9 
 3727  3725  3728  3730     9 
 3727  3725  3728  3731     9 
 3725  3728  3731  3732     9 
 3725  3728  3731  3733     9 
 3725  3728  3731  3734     9 
 3729  3728  3731  3732     9 
 3729  3728  3731  3733     9 
 3729  3728  3731  3734     9 
 3730  3728  3731  3732     9 
 3730  3728  3731  3733     9 
 3730  3728  3731  3734     9 
 3728  3731  3734  3735     9 
 3728  3731  3734  3736     9 
 3728  3731  3734  3737     9 
 3732  3731  3734  3735     9 
 3732  3731  3734  3736     9 
 3732  3731  3734  3737     9 
 3733  3731  3734  3735     9 
 3733  3731  3734  3736     9 
 3733  3731  3734  3737     9 
 3731  3734  3737  3738     9 
 3731  3734  3737  3739     9 
 3731  3734  3737  3740     9 
 3735  3734  3737  3738     9 
 3735  3734  3737  3739     9 
 3735  3734  3737  3740     9 
 3736  3734  3737  3738     9 
 3736  3734  3737  3739     9 
 3736  3734  3737  3740     9 
 3734  3737  3740  3741     9 
 3734  3737  3740  3742     9 
 3734  3737  3740  3743     9 
 3738  3737  3740  3741     9 
 3738  3737  3740  3742     9 
 3738  3737  3740  3743     9 
 3739  3737  3740  3741     9 
 3739  3737  3740  3742     9 
 3739  3737  3740  3743     9 
 3737  3740  3743  3744     9 
 3737  3740  3743  3745     9 
 3737  3740  3743  3746     9 
 3741  3740  3743  3744     9 
 3741  3740  3743  3745     9 
 3741  3740  3743  3746     9 
 3742  3740  3743  3744     9 
 3742  3740  3743  3745     9 
 3742  3740  3743  3746     9 
 3740  3743  3746  3747     9 
 3740  3743  3746  3748     9 
 3740  3743  3746  3749     9 
 3744  3743  3746  3747     9 
 3744  3743  3746  3748     9 
 3744  3743  3746  3749     9 
 3745  3743  3746  3747     9 
 3745  3743  3746  3748     9 
 3745  3743  3746  3749     9 
 3743  3746  3749  3750     9 
 3743  3746  3749  3751     9 
 3743  3746  3749  3752     9 
 3747  3746  3749  3750     9 
 3747  3746  3749  3751     9 
 3747  3746  3749  3752     9 
 3748  3746  3749  3750     9 
 3748  3746  3749  3751     9 
 3748  3746  3749  3752     9 
 3757  3753  3754  3755     9 
 3757  3753  3754  3756     9 
 3757  3753  3754  3769     9 
 3761  3753  3754  3755     9 
 3761  3753  3754  3756     9 
 3761  3753  3754  3769     9 
 3765  3753  3754  3755     9 
 3765  3753  3754  3756     9 
 3765  3753  3754  3769     9 
 3754  3753  3757  3758     9 
 3754  3753  3757  3759     9 
 3754  3753  3757  3760     9 
 3761  3753  3757  3758     9 
 3761  3753  3757  3759     9 
 3761  3753  3757  3760     9 
 3765  3753  3757  3758     9 
 3765  3753  3757  3759     9 
 3765  3753  3757  3760     9 
 3754  3753  3761  3762     9 
 3754  3753  3761  3763     9 
 3754  3753  3761  3764     9 
 3757  3753  3761  3762     9 
 3757  3753  3761  3763     9 
 3757  3753  3761  3764     9 
 3765  3753  3761  3762     9 
 3765  3753  3761  3763     9 
 3765  3753  3761  3764     9 
 3754  3753  3765  3766     9 
 3754  3753  3765  3767     9 
 3754  3753  3765  3768     9 
 3757  3753  3765  3766     9 
 3757  3753  3765  3767     9 
 3757  3753  3765  3768     9 
 3761  3753  3765  3766     9 
 3761  3753  3765  3767     9 
 3761  3753  3765  3768     9 
 3753  3754  3769  3770     9 
 3753  3754  3769  3771     9 
 3753  3754  3769  3775     9 
 3755  3754  3769  3770     9 
 3755  3754  3769  3771     9 
 3755  3754  3769  3775     9 
 3756  3754  3769  3770     9 
 3756  3754  3769  3771     9 
 3756  3754  3769  3775     9 
 3754  3769  3775  3772     9 
 3770  3769  3775  3772     9 
 3771  3769  3775  3772     9 
 3773  3772  3775  3769     9 
 3774  3772  3775  3769     9 
 3776  3772  3775  3769     9 
 3773  3772  3776  3777     9 
 3774  3772  3776  3777     9 
 3775  3772  3776  3777     9 
 3772  3776  3777  3778     9 
 3772  3776  3777  3779     9 
 3772  3776  3777  3780     9 
 3776  3777  3780  3781     9 
 3776  3777  3780  3782     9 
 3776  3777  3780  3788     9 
 3778  3777  3780  3781     9 
 3778  3777  3780  3782     9 
 3778  3777  3780  3788     9 
 3779  3777  3780  3781     9 
 3779  3777  3780  3782     9 
 3779  3777  3780  3788     9 
 3777  3780  3782  3783     9 
 3781  3780  3782  3783     9 
 3788  3780  3782  3783     9 
 3777  3780  3788  3789     9 
 3777  3780  3788  3790     9 
 3777  3780  3788  3791     9 
 3781  3780  3788  3789     9 
 3781  3780  3788  3790     9 
 3781  3780  3788  3791     9 
 3782  3780  3788  3789     9 
 3782  3780  3788  3790     9 
 3782  3780  3788  3791     9 
 3780  3782  3783  3784     9 
 3780  3782  3783  3785     9 
 3782  3783  3785  3786     9 
 3782  3783  3785  3787     9 
 3782  3783  3785  3797     9 
 3784  3783  3785  3786     9 
 3784  3783  3785  3787     9 
 3784  3783  3785  3797     9 
 3783  3785  3797  3798     9 
 3783  3785  3797  3799     9 
 3783  3785  3797  3800     9 
 3786  3785  3797  3798     9 
 3786  3785  3797  3799     9 
 3786  3785  3797  3800     9 
 3787  3785  3797  3798     9 
 3787  3785  3797  3799     9 
 3787  3785  3797  3800     9 
 3780  3788  3791  3792     9 
 3789  3788  3791  3792     9 
 3790  3788  3791  3792     9 
 3788  3791  3792  3793     9 
 3788  3791  3792  3794     9 
 3791  3792  3794  3795     9 
 3791  3792  3794  3796     9 
 3791  3792  3794  3844     9 
 3793  3792  3794  3795     9 
 3793  3792  3794  3796     9 
 3793  3792  3794  3844     9 
 3792  3794  3844  3845     9 
 3792  3794  3844  3846     9 
 3792  3794  3844  3847     9 
 3795  3794  3844  3845     9 
 3795  3794  3844  3846     9 
 3795  3794  3844  3847     9 
 3796  3794  3844  3845     9 
 3796  3794  3844  3846     9 
 3796  3794  3844  3847     9 
 3785  3797  3800  3801     9 
 3785  3797  3800  3802     9 
 3785  3797  3800  3803     9 
 3798  3797  3800  3801     9 
 3798  3797  3800  3802     9 
 3798  3797  3800  3803     9 
 3799  3797  3800  3801     9 
 3799  3797  3800  3802     9 
 3799  3797  3800  3803     9 
 3797  3800  3803  3804     9 
 3797  3800  3803  3805     9 
 3797  3800  3803  3806     9 
 3801  3800  3803  3804     9 
 3801  3800  3803  3805     9 
 3801  3800  3803  3806     9 
 3802  3800  3803  3804     9 
 3802  3800  3803  3805     9 
 3802  3800  3803  3806     9 
 3800  3803  3806  3807     9 
 3800  3803  3806  3808     9 
 3800  3803  3806  3809     9 
 3804  3803  3806  3807     9 
 3804  3803  3806  3808     9 
 3804  3803  3806  3809     9 
 3805  3803  3806  3807     9 
 3805  3803  3806  3808     9 
 3805  3803  3806  3809     9 
 3803  3806  3809  3810     9 
 3803  3806  3809  3811     9 
 3803  3806  3809  3812     9 
 3807  3806  3809  3810     9 
 3807  3806  3809  3811     9 
 3807  3806  3809  3812     9 
 3808  3806  3809  3810     9 
 3808  3806  3809  3811     9 
 3808  3806  3809  3812     9 
 3806  3809  3812  3813     9 
 3806  3809  3812  3814     9 
 3806  3809  3812  3815     9 
 3810  3809  3812  3813     9 
 3810  3809  3812  3814     9 
 3810  3809  3812  3815     9 
 3811  3809  3812  3813     9 
 3811  3809  3812  3814     9 
 3811  3809  3812  3815     9 
 3809  3812  3815  3816     9 
 3809  3812  3815  3817     9 
 3813  3812  3815  3816     9 
 3813  3812  3815  3817     9 
 3814  3812  3815  3816     9 
 3814  3812  3815  3817     9 
 3812  3815  3817  3818     9 
 3812  3815  3817  3819     9 
 3816  3815  3817  3818     9 
 3816  3815  3817  3819     9 
 3815  3817  3819  3820     9 
 3815  3817  3819  3821     9 
 3815  3817  3819  3822     9 
 3818  3817  3819  3820     9 
 3818  3817  3819  3821     9 
 3818  3817  3819  3822     9 
 3817  3819  3822  3823     9 
 3817  3819  3822  3824     9 
 3817  3819  3822  3825     9 
 3820  3819  3822  3823     9 
 3820  3819  3822  3824     9 
 3820  3819  3822  3825     9 
 3821  3819  3822  3823     9 
 3821  3819  3822  3824     9 
 3821  3819  3822  3825     9 
 3819  3822  3825  3826     9 
 3819  3822  3825  3827     9 
 3819  3822  3825  3828     9 
 3823  3822  3825  3826     9 
 3823  3822  3825  3827     9 
 3823  3822  3825  3828     9 
 3824  3822  3825  3826     9 
 3824  3822  3825  3827     9 
 3824  3822  3825  3828     9 
 3822  3825  3828  3829     9 
 3822  3825  3828  3830     9 
 3822  3825  3828  3831     9 
 3826  3825  3828  3829     9 
 3826  3825  3828  3830     9 
 3826  3825  3828  3831     9 
 3827  3825  3828  3829     9 
 3827  3825  3828  3830     9 
 3827  3825  3828  3831     9 
 3825  3828  3831  3832     9 
 3825  3828  3831  3833     9 
 3825  3828  3831  3834     9 
 3829  3828  3831  3832     9 
 3829  3828  3831  3833     9 
 3829  3828  3831  3834     9 
 3830  3828  3831  3832     9 
 3830  3828  3831  3833     9 
 3830  3828  3831  3834     9 
 3828  3831  3834  3835     9 
 3828  3831  3834  3836     9 
 3828  3831  3834  3837     9 
 3832  3831  3834  3835     9 
 3832  3831  3834  3836     9 
 3832  3831  3834  3837     9 
 3833  3831  3834  3835     9 
 3833  3831  3834  3836     9 
 3833  3831  3834  3837     9 
 3831  3834  3837  3838     9 
 3831  3834  3837  3839     9 
 3831  3834  3837  3840     9 
 3835  3834  3837  3838     9 
 3835  3834  3837  3839     9 
 3835  3834  3837  3840     9 
 3836  3834  3837  3838     9 
 3836  3834  3837  3839     9 
 3836  3834  3837  3840     9 
 3834  3837  3840  3841     9 
 3834  3837  3840  3842     9 
 3834  3837  3840  3843     9 
 3838  3837  3840  3841     9 
 3838  3837  3840  3842     9 
 3838  3837  3840  3843     9 
 3839  3837  3840  3841     9 
 3839  3837  3840  3842     9 
 3839  3837  3840  3843     9 
 3794  3844  3847  3848     9 
 3794  3844  3847  3849     9 
 3794  3844  3847  3850     9 
 3845  3844  3847  3848     9 
 3845  3844  3847  3849     9 
 3845  3844  3847  3850     9 
 3846  3844  3847  3848     9 
 3846  3844  3847  3849     9 
 3846  3844  3847  3850     9 
 3844  3847  3850  3851     9 
 3844  3847  3850  3852     9 
 3844  3847  3850  3853     9 
 3848  3847  3850  3851     9 
 3848  3847  3850  3852     9 
 3848  3847  3850  3853     9 
 3849  3847  3850  3851     9 
 3849  3847  3850  3852     9 
 3849  3847  3850  3853     9 
 3847  3850  3853  3854     9 
 3847  3850  3853  3855     9 
 3847  3850  3853  3856     9 
 3851  3850  3853  3854     9 
 3851  3850  3853  3855     9 
 3851  3850  3853  3856     9 
 3852  3850  3853  3854     9 
 3852  3850  3853  3855     9 
 3852  3850  3853  3856     9 
 3850  3853  3856  3857     9 
 3850  3853  3856  3858     9 
 3850  3853  3856  3859     9 
 3854  3853  3856  3857     9 
 3854  3853  3856  3858     9 
 3854  3853  3856  3859     9 
 3855  3853  3856  3857     9 
 3855  3853  3856  3858     9 
 3855  3853  3856  3859     9 
 3853  3856  3859  3860     9 
 3853  3856  3859  3861     9 
 3853  3856  3859  3862     9 
 3857  3856  3859  3860     9 
 3857  3856  3859  3861     9 
 3857  3856  3859  3862     9 
 3858  3856  3859  3860     9 
 3858  3856  3859  3861     9 
 3858  3856  3859  3862     9 
 3856  3859  3862  3863     9 
 3856  3859  3862  3864     9 
 3856  3859  3862  3865     9 
 3860  3859  3862  3863     9 
 3860  3859  3862  3864     9 
 3860  3859  3862  3865     9 
 3861  3859  3862  3863     9 
 3861  3859  3862  3864     9 
 3861  3859  3862  3865     9 
 3859  3862  3865  3866     9 
 3859  3862  3865  3867     9 
 3859  3862  3865  3868     9 
 3863  3862  3865  3866     9 
 3863  3862  3865  3867     9 
 3863  3862  3865  3868     9 
 3864  3862  3865  3866     9 
 3864  3862  3865  3867     9 
 3864  3862  3865  3868     9 
 3862  3865  3868  3869     9 
 3862  3865  3868  3870     9 
 3862  3865  3868  3871     9 
 3866  3865  3868  3869     9 
 3866  3865  3868  3870     9 
 3866  3865  3868  3871     9 
 3867  3865  3868  3869     9 
 3867  3865  3868  3870     9 
 3867  3865  3868  3871     9 
 3865  3868  3871  3872     9 
 3865  3868  3871  3873     9 
 3865  3868  3871  3874     9 
 3869  3868  3871  3872     9 
 3869  3868  3871  3873     9 
 3869  3868  3871  3874     9 
 3870  3868  3871  3872     9 
 3870  3868  3871  3873     9 
 3870  3868  3871  3874     9 
 3868  3871  3874  3875     9 
 3868  3871  3874  3876     9 
 3868  3871  3874  3877     9 
 3872  3871  3874  3875     9 
 3872  3871  3874  3876     9 
 3872  3871  3874  3877     9 
 3873  3871  3874  3875     9 
 3873  3871  3874  3876     9 
 3873  3871  3874  3877     9 
 3871  3874  3877  3878     9 
 3871  3874  3877  3879     9 
 3871  3874  3877  3880     9 
 3875  3874  3877  3878     9 
 3875  3874  3877  3879     9 
 3875  3874  3877  3880     9 
 3876  3874  3877  3878     9 
 3876  3874  3877  3879     9 
 3876  3874  3877  3880     9 
 3874  3877  3880  3881     9 
 3874  3877  3880  3882     9 
 3874  3877  3880  3883     9 
 3878  3877  3880  3881     9 
 3878  3877  3880  3882     9 
 3878  3877  3880  3883     9 
 3879  3877  3880  3881     9 
 3879  3877  3880  3882     9 
 3879  3877  3880  3883     9 
 3877  3880  3883  3884     9 
 3877  3880  3883  3885     9 
 3877  3880  3883  3886     9 
 3881  3880  3883  3884     9 
 3881  3880  3883  3885     9 
 3881  3880  3883  3886     9 
 3882  3880  3883  3884     9 
 3882  3880  3883  3885     9 
 3882  3880  3883  3886     9 
 3891  3887  3888  3889     9 
 3891  3887  3888  3890     9 
 3891  3887  3888  3903     9 
 3895  3887  3888  3889     9 
 3895  3887  3888  3890     9 
 3895  3887  3888  3903     9 
 3899  3887  3888  3889     9 
 3899  3887  3888  3890     9 
 3899  3887  3888  3903     9 
 3888  3887  3891  3892     9 
 3888  3887  3891  3893     9 
 3888  3887  3891  3894     9 
 3895  3887  3891  3892     9 
 3895  3887  3891  3893     9 
 3895  3887  3891  3894     9 
 3899  3887  3891  3892     9 
 3899  3887  3891  3893     9 
 3899  3887  3891  3894     9 
 3888  3887  3895  3896     9 
 3888  3887  3895  3897     9 
 3888  3887  3895  3898     9 
 3891  3887  3895  3896     9 
 3891  3887  3895  3897     9 
 3891  3887  3895  3898     9 
 3899  3887  3895  3896     9 
 3899  3887  3895  3897     9 
 3899  3887  3895  3898     9 
 3888  3887  3899  3900     9 
 3888  3887  3899  3901     9 
 3888  3887  3899  3902     9 
 3891  3887  3899  3900     9 
 3891  3887  3899  3901     9 
 3891  3887  3899  3902     9 
 3895  3887  3899  3900     9 
 3895  3887  3899  3901     9 
 3895  3887  3899  3902     9 
 3887  3888  3903  3904     9 
 3887  3888  3903  3905     9 
 3887  3888  3903  3909     9 
 3889  3888  3903  3904     9 
 3889  3888  3903  3905     9 
 3889  3888  3903  3909     9 
 3890  3888  3903  3904     9 
 3890  3888  3903  3905     9 
 3890  3888  3903  3909     9 
 3888  3903  3909  3906     9 
 3904  3903  3909  3906     9 
 3905  3903  3909  3906     9 
 3907  3906  3909  3903     9 
 3908  3906  3909  3903     9 
 3910  3906  3909  3903     9 
 3907  3906  3910  3911     9 
 3908  3906  3910  3911     9 
 3909  3906  3910  3911     9 
 3906  3910  3911  3912     9 
 3906  3910  3911  3913     9 
 3906  3910  3911  3914     9 
 3910  3911  3914  3915     9 
 3910  3911  3914  3916     9 
 3910  3911  3914  3922     9 
 3912  3911  3914  3915     9 
 3912  3911  3914  3916     9 
 3912  3911  3914  3922     9 
 3913  3911  3914  3915     9 
 3913  3911  3914  3916     9 
 3913  3911  3914  3922     9 
 3911  3914  3916  3917     9 
 3915  3914  3916  3917     9 
 3922  3914  3916  3917     9 
 3911  3914  3922  3923     9 
 3911  3914  3922  3924     9 
 3911  3914  3922  3925     9 
 3915  3914  3922  3923     9 
 3915  3914  3922  3924     9 
 3915  3914  3922  3925     9 
 3916  3914  3922  3923     9 
 3916  3914  3922  3924     9 
 3916  3914  3922  3925     9 
 3914  3916  3917  3918     9 
 3914  3916  3917  3919     9 
 3916  3917  3919  3920     9 
 3916  3917  3919  3921     9 
 3916  3917  3919  3931     9 
 3918  3917  3919  3920     9 
 3918  3917  3919  3921     9 
 3918  3917  3919  3931     9 
 3917  3919  3931  3932     9 
 3917  3919  3931  3933     9 
 3917  3919  3931  3934     9 
 3920  3919  3931  3932     9 
 3920  3919  3931  3933     9 
 3920  3919  3931  3934     9 
 3921  3919  3931  3932     9 
 3921  3919  3931  3933     9 
 3921  3919  3931  3934     9 
 3914  3922  3925  3926     9 
 3923  3922  3925  3926     9 
 3924  3922  3925  3926     9 
 3922  3925  3926  3927     9 
 3922  3925  3926  3928     9 
 3925  3926  3928  3929     9 
 3925  3926  3928  3930     9 
 3925  3926  3928  3978     9 
 3927  3926  3928  3929     9 
 3927  3926  3928  3930     9 
 3927  3926  3928  3978     9 
 3926  3928  3978  3979     9 
 3926  3928  3978  3980     9 
 3926  3928  3978  3981     9 
 3929  3928  3978  3979     9 
 3929  3928  3978  3980     9 
 3929  3928  3978  3981     9 
 3930  3928  3978  3979     9 
 3930  3928  3978  3980     9 
 3930  3928  3978  3981     9 
 3919  3931  3934  3935     9 
 3919  3931  3934  3936     9 
 3919  3931  3934  3937     9 
 3932  3931  3934  3935     9 
 3932  3931  3934  3936     9 
 3932  3931  3934  3937     9 
 3933  3931  3934  3935     9 
 3933  3931  3934  3936     9 
 3933  3931  3934  3937     9 
 3931  3934  3937  3938     9 
 3931  3934  3937  3939     9 
 3931  3934  3937  3940     9 
 3935  3934  3937  3938     9 
 3935  3934  3937  3939     9 
 3935  3934  3937  3940     9 
 3936  3934  3937  3938     9 
 3936  3934  3937  3939     9 
 3936  3934  3937  3940     9 
 3934  3937  3940  3941     9 
 3934  3937  3940  3942     9 
 3934  3937  3940  3943     9 
 3938  3937  3940  3941     9 
 3938  3937  3940  3942     9 
 3938  3937  3940  3943     9 
 3939  3937  3940  3941     9 
 3939  3937  3940  3942     9 
 3939  3937  3940  3943     9 
 3937  3940  3943  3944     9 
 3937  3940  3943  3945     9 
 3937  3940  3943  3946     9 
 3941  3940  3943  3944     9 
 3941  3940  3943  3945     9 
 3941  3940  3943  3946     9 
 3942  3940  3943  3944     9 
 3942  3940  3943  3945     9 
 3942  3940  3943  3946     9 
 3940  3943  3946  3947     9 
 3940  3943  3946  3948     9 
 3940  3943  3946  3949     9 
 3944  3943  3946  3947     9 
 3944  3943  3946  3948     9 
 3944  3943  3946  3949     9 
 3945  3943  3946  3947     9 
 3945  3943  3946  3948     9 
 3945  3943  3946  3949     9 
 3943  3946  3949  3950     9 
 3943  3946  3949  3951     9 
 3947  3946  3949  3950     9 
 3947  3946  3949  3951     9 
 3948  3946  3949  3950     9 
 3948  3946  3949  3951     9 
 3946  3949  3951  3952     9 
 3946  3949  3951  3953     9 
 3950  3949  3951  3952     9 
 3950  3949  3951  3953     9 
 3949  3951  3953  3954     9 
 3949  3951  3953  3955     9 
 3949  3951  3953  3956     9 
 3952  3951  3953  3954     9 
 3952  3951  3953  3955     9 
 3952  3951  3953  3956     9 
 3951  3953  3956  3957     9 
 3951  3953  3956  3958     9 
 3951  3953  3956  3959     9 
 3954  3953  3956  3957     9 
 3954  3953  3956  3958     9 
 3954  3953  3956  3959     9 
 3955  3953  3956  3957     9 
 3955  3953  3956  3958     9 
 3955  3953  3956  3959     9 
 3953  3956  3959  3960     9 
 3953  3956  3959  3961     9 
 3953  3956  3959  3962     9 
 3957  3956  3959  3960     9 
 3957  3956  3959  3961     9 
 3957  3956  3959  3962     9 
 3958  3956  3959  3960     9 
 3958  3956  3959  3961     9 
 3958  3956  3959  3962     9 
 3956  3959  3962  3963     9 
 3956  3959  3962  3964     9 
 3956  3959  3962  3965     9 
 3960  3959  3962  3963     9 
 3960  3959  3962  3964     9 
 3960  3959  3962  3965     9 
 3961  3959  3962  3963     9 
 3961  3959  3962  3964     9 
 3961  3959  3962  3965     9 
 3959  3962  3965  3966     9 
 3959  3962  3965  3967     9 
 3959  3962  3965  3968     9 
 3963  3962  3965  3966     9 
 3963  3962  3965  3967     9 
 3963  3962  3965  3968     9 
 3964  3962  3965  3966     9 
 3964  3962  3965  3967     9 
 3964  3962  3965  3968     9 
 3962  3965  3968  3969     9 
 3962  3965  3968  3970     9 
 3962  3965  3968  3971     9 
 3966  3965  3968  3969     9 
 3966  3965  3968  3970     9 
 3966  3965  3968  3971     9 
 3967  3965  3968  3969     9 
 3967  3965  3968  3970     9 
 3967  3965  3968  3971     9 
 3965  3968  3971  3972     9 
 3965  3968  3971  3973     9 
 3965  3968  3971  3974     9 
 3969  3968  3971  3972     9 
 3969  3968  3971  3973     9 
 3969  3968  3971  3974     9 
 3970  3968  3971  3972     9 
 3970  3968  3971  3973     9 
 3970  3968  3971  3974     9 
 3968  3971  3974  3975     9 
 3968  3971  3974  3976     9 
 3968  3971  3974  3977     9 
 3972  3971  3974  3975     9 
 3972  3971  3974  3976     9 
 3972  3971  3974  3977     9 
 3973  3971  3974  3975     9 
 3973  3971  3974  3976     9 
 3973  3971  3974  3977     9 
 3928  3978  3981  3982     9 
 3928  3978  3981  3983     9 
 3928  3978  3981  3984     9 
 3979  3978  3981  3982     9 
 3979  3978  3981  3983     9 
 3979  3978  3981  3984     9 
 3980  3978  3981  3982     9 
 3980  3978  3981  3983     9 
 3980  3978  3981  3984     9 
 3978  3981  3984  3985     9 
 3978  3981  3984  3986     9 
 3978  3981  3984  3987     9 
 3982  3981  3984  3985     9 
 3982  3981  3984  3986     9 
 3982  3981  3984  3987     9 
 3983  3981  3984  3985     9 
 3983  3981  3984  3986     9 
 3983  3981  3984  3987     9 
 3981  3984  3987  3988     9 
 3981  3984  3987  3989     9 
 3981  3984  3987  3990     9 
 3985  3984  3987  3988     9 
 3985  3984  3987  3989     9 
 3985  3984  3987  3990     9 
 3986  3984  3987  3988     9 
 3986  3984  3987  3989     9 
 3986  3984  3987  3990     9 
 3984  3987  3990  3991     9 
 3984  3987  3990  3992     9 
 3984  3987  3990  3993     9 
 3988  3987  3990  3991     9 
 3988  3987  3990  3992     9 
 3988  3987  3990  3993     9 
 3989  3987  3990  3991     9 
 3989  3987  3990  3992     9 
 3989  3987  3990  3993     9 
 3987  3990  3993  3994     9 
 3987  3990  3993  3995     9 
 3987  3990  3993  3996     9 
 3991  3990  3993  3994     9 
 3991  3990  3993  3995     9 
 3991  3990  3993  3996     9 
 3992  3990  3993  3994     9 
 3992  3990  3993  3995     9 
 3992  3990  3993  3996     9 
 3990  3993  3996  3997     9 
 3990  3993  3996  3998     9 
 3990  3993  3996  3999     9 
 3994  3993  3996  3997     9 
 3994  3993  3996  3998     9 
 3994  3993  3996  3999     9 
 3995  3993  3996  3997     9 
 3995  3993  3996  3998     9 
 3995  3993  3996  3999     9 
 3993  3996  3999  4000     9 
 3993  3996  3999  4001     9 
 3993  3996  3999  4002     9 
 3997  3996  3999  4000     9 
 3997  3996  3999  4001     9 
 3997  3996  3999  4002     9 
 3998  3996  3999  4000     9 
 3998  3996  3999  4001     9 
 3998  3996  3999  4002     9 
 3996  3999  4002  4003     9 
 3996  3999  4002  4004     9 
 3996  3999  4002  4005     9 
 4000  3999  4002  4003     9 
 4000  3999  4002  4004     9 
 4000  3999  4002  4005     9 
 4001  3999  4002  4003     9 
 4001  3999  4002  4004     9 
 4001  3999  4002  4005     9 
 3999  4002  4005  4006     9 
 3999  4002  4005  4007     9 
 3999  4002  4005  4008     9 
 4003  4002  4005  4006     9 
 4003  4002  4005  4007     9 
 4003  4002  4005  4008     9 
 4004  4002  4005  4006     9 
 4004  4002  4005  4007     9 
 4004  4002  4005  4008     9 
 4002  4005  4008  4009     9 
 4002  4005  4008  4010     9 
 4002  4005  4008  4011     9 
 4006  4005  4008  4009     9 
 4006  4005  4008  4010     9 
 4006  4005  4008  4011     9 
 4007  4005  4008  4009     9 
 4007  4005  4008  4010     9 
 4007  4005  4008  4011     9 
 4005  4008  4011  4012     9 
 4005  4008  4011  4013     9 
 4005  4008  4011  4014     9 
 4009  4008  4011  4012     9 
 4009  4008  4011  4013     9 
 4009  4008  4011  4014     9 
 4010  4008  4011  4012     9 
 4010  4008  4011  4013     9 
 4010  4008  4011  4014     9 
 4008  4011  4014  4015     9 
 4008  4011  4014  4016     9 
 4008  4011  4014  4017     9 
 4012  4011  4014  4015     9 
 4012  4011  4014  4016     9 
 4012  4011  4014  4017     9 
 4013  4011  4014  4015     9 
 4013  4011  4014  4016     9 
 4013  4011  4014  4017     9 
 4011  4014  4017  4018     9 
 4011  4014  4017  4019     9 
 4011  4014  4017  4020     9 
 4015  4014  4017  4018     9 
 4015  4014  4017  4019     9 
 4015  4014  4017  4020     9 
 4016  4014  4017  4018     9 
 4016  4014  4017  4019     9 
 4016  4014  4017  4020     9 
 4025  4021  4022  4023     9 
 4025  4021  4022  4024     9 
 4025  4021  4022  4037     9 
 4029  4021  4022  4023     9 
 4029  4021  4022  4024     9 
 4029  4021  4022  4037     9 
 4033  4021  4022  4023     9 
 4033  4021  4022  4024     9 
 4033  4021  4022  4037     9 
 4022  4021  4025  4026     9 
 4022  4021  4025  4027     9 
 4022  4021  4025  4028     9 
 4029  4021  4025  4026     9 
 4029  4021  4025  4027     9 
 4029  4021  4025  4028     9 
 4033  4021  4025  4026     9 
 4033  4021  4025  4027     9 
 4033  4021  4025  4028     9 
 4022  4021  4029  4030     9 
 4022  4021  4029  4031     9 
 4022  4021  4029  4032     9 
 4025  4021  4029  4030     9 
 4025  4021  4029  4031     9 
 4025  4021  4029  4032     9 
 4033  4021  4029  4030     9 
 4033  4021  4029  4031     9 
 4033  4021  4029  4032     9 
 4022  4021  4033  4034     9 
 4022  4021  4033  4035     9 
 4022  4021  4033  4036     9 
 4025  4021  4033  4034     9 
 4025  4021  4033  4035     9 
 4025  4021  4033  4036     9 
 4029  4021  4033  4034     9 
 4029  4021  4033  4035     9 
 4029  4021  4033  4036     9 
 4021  4022  4037  4038     9 
 4021  4022  4037  4039     9 
 4021  4022  4037  4043     9 
 4023  4022  4037  4038     9 
 4023  4022  4037  4039     9 
 4023  4022  4037  4043     9 
 4024  4022  4037  4038     9 
 4024  4022  4037  4039     9 
 4024  4022  4037  4043     9 
 4022  4037  4043  4040     9 
 4038  4037  4043  4040     9 
 4039  4037  4043  4040     9 
 4041  4040  4043  4037     9 
 4042  4040  4043  4037     9 
 4044  4040  4043  4037     9 
 4041  4040  4044  4045     9 
 4042  4040  4044  4045     9 
 4043  4040  4044  4045     9 
 4040  4044  4045  4046     9 
 4040  4044  4045  4047     9 
 4040  4044  4045  4048     9 
 4044  4045  4048  4049     9 
 4044  4045  4048  4050     9 
 4044  4045  4048  4056     9 
 4046  4045  4048  4049     9 
 4046  4045  4048  4050     9 
 4046  4045  4048  4056     9 
 4047  4045  4048  4049     9 
 4047  4045  4048  4050     9 
 4047  4045  4048  4056     9 
 4045  4048  4050  4051     9 
 4049  4048  4050  4051     9 
 4056  4048  4050  4051     9 
 4045  4048  4056  4057     9 
 4045  4048  4056  4058     9 
 4045  4048  4056  4059     9 
 4049  4048  4056  4057     9 
 4049  4048  4056  4058     9 
 4049  4048  4056  4059     9 
 4050  4048  4056  4057     9 
 4050  4048  4056  4058     9 
 4050  4048  4056  4059     9 
 4048  4050  4051  4052     9 
 4048  4050  4051  4053     9 
 4050  4051  4053  4054     9 
 4050  4051  4053  4055     9 
 4050  4051  4053  4065     9 
 4052  4051  4053  4054     9 
 4052  4051  4053  4055     9 
 4052  4051  4053  4065     9 
 4051  4053  4065  4066     9 
 4051  4053  4065  4067     9 
 4051  4053  4065  4068     9 
 4054  4053  4065  4066     9 
 4054  4053  4065  4067     9 
 4054  4053  4065  4068     9 
 4055  4053  4065  4066     9 
 4055  4053  4065  4067     9 
 4055  4053  4065  4068     9 
 4048  4056  4059  4060     9 
 4057  4056  4059  4060     9 
 4058  4056  4059  4060     9 
 4056  4059  4060  4061     9 
 4056  4059  4060  4062     9 
 4059  4060  4062  4063     9 
 4059  4060  4062  4064     9 
 4059  4060  4062  4112     9 
 4061  4060  4062  4063     9 
 4061  4060  4062  4064     9 
 4061  4060  4062  4112     9 
 4060  4062  4112  4113     9 
 4060  4062  4112  4114     9 
 4060  4062  4112  4115     9 
 4063  4062  4112  4113     9 
 4063  4062  4112  4114     9 
 4063  4062  4112  4115     9 
 4064  4062  4112  4113     9 
 4064  4062  4112  4114     9 
 4064  4062  4112  4115     9 
 4053  4065  4068  4069     9 
 4053  4065  4068  4070     9 
 4053  4065  4068  4071     9 
 4066  4065  4068  4069     9 
 4066  4065  4068  4070     9 
 4066  4065  4068  4071     9 
 4067  4065  4068  4069     9 
 4067  4065  4068  4070     9 
 4067  4065  4068  4071     9 
 4065  4068  4071  4072     9 
 4065  4068  4071  4073     9 
 4065  4068  4071  4074     9 
 4069  4068  4071  4072     9 
 4069  4068  4071  4073     9 
 4069  4068  4071  4074     9 
 4070  4068  4071  4072     9 
 4070  4068  4071  4073     9 
 4070  4068  4071  4074     9 
 4068  4071  4074  4075     9 
 4068  4071  4074  4076     9 
 4068  4071  4074  4077     9 
 4072  4071  4074  4075     9 
 4072  4071  4074  4076     9 
 4072  4071  4074  4077     9 
 4073  4071  4074  4075     9 
 4073  4071  4074  4076     9 
 4073  4071  4074  4077     9 
 4071  4074  4077  4078     9 
 4071  4074  4077  4079     9 
 4071  4074  4077  4080     9 
 4075  4074  4077  4078     9 
 4075  4074  4077  4079     9 
 4075  4074  4077  4080     9 
 4076  4074  4077  4078     9 
 4076  4074  4077  4079     9 
 4076  4074  4077  4080     9 
 4074  4077  4080  4081     9 
 4074  4077  4080  4082     9 
 4074  4077  4080  4083     9 
 4078  4077  4080  4081     9 
 4078  4077  4080  4082     9 
 4078  4077  4080  4083     9 
 4079  4077  4080  4081     9 
 4079  4077  4080  4082     9 
 4079  4077  4080  4083     9 
 4077  4080  4083  4084     9 
 4077  4080  4083  4085     9 
 4081  4080  4083  4084     9 
 4081  4080  4083  4085     9 
 4082  4080  4083  4084     9 
 4082  4080  4083  4085     9 
 4080  4083  4085  4086     9 
 4080  4083  4085  4087     9 
 4084  4083  4085  4086     9 
 4084  4083  4085  4087     9 
 4083  4085  4087  4088     9 
 4083  4085  4087  4089     9 
 4083  4085  4087  4090     9 
 4086  4085  4087  4088     9 
 4086  4085  4087  4089     9 
 4086  4085  4087  4090     9 
 4085  4087  4090  4091     9 
 4085  4087  4090  4092     9 
 4085  4087  4090  4093     9 
 4088  4087  4090  4091     9 
 4088  4087  4090  4092     9 
 4088  4087  4090  4093     9 
 4089  4087  4090  4091     9 
 4089  4087  4090  4092     9 
 4089  4087  4090  4093     9 
 4087  4090  4093  4094     9 
 4087  4090  4093  4095     9 
 4087  4090  4093  4096     9 
 4091  4090  4093  4094     9 
 4091  4090  4093  4095     9 
 4091  4090  4093  4096     9 
 4092  4090  4093  4094     9 
 4092  4090  4093  4095     9 
 4092  4090  4093  4096     9 
 4090  4093  4096  4097     9 
 4090  4093  4096  4098     9 
 4090  4093  4096  4099     9 
 4094  4093  4096  4097     9 
 4094  4093  4096  4098     9 
 4094  4093  4096  4099     9 
 4095  4093  4096  4097     9 
 4095  4093  4096  4098     9 
 4095  4093  4096  4099     9 
 4093  4096  4099  4100     9 
 4093  4096  4099  4101     9 
 4093  4096  4099  4102     9 
 4097  4096  4099  4100     9 
 4097  4096  4099  4101     9 
 4097  4096  4099  4102     9 
 4098  4096  4099  4100     9 
 4098  4096  4099  4101     9 
 4098  4096  4099  4102     9 
 4096  4099  4102  4103     9 
 4096  4099  4102  4104     9 
 4096  4099  4102  4105     9 
 4100  4099  4102  4103     9 
 4100  4099  4102  4104     9 
 4100  4099  4102  4105     9 
 4101  4099  4102  4103     9 
 4101  4099  4102  4104     9 
 4101  4099  4102  4105     9 
 4099  4102  4105  4106     9 
 4099  4102  4105  4107     9 
 4099  4102  4105  4108     9 
 4103  4102  4105  4106     9 
 4103  4102  4105  4107     9 
 4103  4102  4105  4108     9 
 4104  4102  4105  4106     9 
 4104  4102  4105  4107     9 
 4104  4102  4105  4108     9 
 4102  4105  4108  4109     9 
 4102  4105  4108  4110     9 
 4102  4105  4108  4111     9 
 4106  4105  4108  4109     9 
 4106  4105  4108  4110     9 
 4106  4105  4108  4111     9 
 4107  4105  4108  4109     9 
 4107  4105  4108  4110     9 
 4107  4105  4108  4111     9 
 4062  4112  4115  4116     9 
 4062  4112  4115  4117     9 
 4062  4112  4115  4118     9 
 4113  4112  4115  4116     9 
 4113  4112  4115  4117     9 
 4113  4112  4115  4118     9 
 4114  4112  4115  4116     9 
 4114  4112  4115  4117     9 
 4114  4112  4115  4118     9 
 4112  4115  4118  4119     9 
 4112  4115  4118  4120     9 
 4112  4115  4118  4121     9 
 4116  4115  4118  4119     9 
 4116  4115  4118  4120     9 
 4116  4115  4118  4121     9 
 4117  4115  4118  4119     9 
 4117  4115  4118  4120     9 
 4117  4115  4118  4121     9 
 4115  4118  4121  4122     9 
 4115  4118  4121  4123     9 
 4115  4118  4121  4124     9 
 4119  4118  4121  4122     9 
 4119  4118  4121  4123     9 
 4119  4118  4121  4124     9 
 4120  4118  4121  4122     9 
 4120  4118  4121  4123     9 
 4120  4118  4121  4124     9 
 4118  4121  4124  4125     9 
 4118  4121  4124  4126     9 
 4118  4121  4124  4127     9 
 4122  4121  4124  4125     9 
 4122  4121  4124  4126     9 
 4122  4121  4124  4127     9 
 4123  4121  4124  4125     9 
 4123  4121  4124  4126     9 
 4123  4121  4124  4127     9 
 4121  4124  4127  4128     9 
 4121  4124  4127  4129     9 
 4121  4124  4127  4130     9 
 4125  4124  4127  4128     9 
 4125  4124  4127  4129     9 
 4125  4124  4127  4130     9 
 4126  4124  4127  4128     9 
 4126  4124  4127  4129     9 
 4126  4124  4127  4130     9 
 4124  4127  4130  4131     9 
 4124  4127  4130  4132     9 
 4124  4127  4130  4133     9 
 4128  4127  4130  4131     9 
 4128  4127  4130  4132     9 
 4128  4127  4130  4133     9 
 4129  4127  4130  4131     9 
 4129  4127  4130  4132     9 
 4129  4127  4130  4133     9 
 4127  4130  4133  4134     9 
 4127  4130  4133  4135     9 
 4127  4130  4133  4136     9 
 4131  4130  4133  4134     9 
 4131  4130  4133  4135     9 
 4131  4130  4133  4136     9 
 4132  4130  4133  4134     9 
 4132  4130  4133  4135     9 
 4132  4130  4133  4136     9 
 4130  4133  4136  4137     9 
 4130  4133  4136  4138     9 
 4130  4133  4136  4139     9 
 4134  4133  4136  4137     9 
 4134  4133  4136  4138     9 
 4134  4133  4136  4139     9 
 4135  4133  4136  4137     9 
 4135  4133  4136  4138     9 
 4135  4133  4136  4139     9 
 4133  4136  4139  4140     9 
 4133  4136  4139  4141     9 
 4133  4136  4139  4142     9 
 4137  4136  4139  4140     9 
 4137  4136  4139  4141     9 
 4137  4136  4139  4142     9 
 4138  4136  4139  4140     9 
 4138  4136  4139  4141     9 
 4138  4136  4139  4142     9 
 4136  4139  4142  4143     9 
 4136  4139  4142  4144     9 
 4136  4139  4142  4145     9 
 4140  4139  4142  4143     9 
 4140  4139  4142  4144     9 
 4140  4139  4142  4145     9 
 4141  4139  4142  4143     9 
 4141  4139  4142  4144     9 
 4141  4139  4142  4145     9 
 4139  4142  4145  4146     9 
 4139  4142  4145  4147     9 
 4139  4142  4145  4148     9 
 4143  4142  4145  4146     9 
 4143  4142  4145  4147     9 
 4143  4142  4145  4148     9 
 4144  4142  4145  4146     9 
 4144  4142  4145  4147     9 
 4144  4142  4145  4148     9 
 4142  4145  4148  4149     9 
 4142  4145  4148  4150     9 
 4142  4145  4148  4151     9 
 4146  4145  4148  4149     9 
 4146  4145  4148  4150     9 
 4146  4145  4148  4151     9 
 4147  4145  4148  4149     9 
 4147  4145  4148  4150     9 
 4147  4145  4148  4151     9 
 4145  4148  4151  4152     9 
 4145  4148  4151  4153     9 
 4145  4148  4151  4154     9 
 4149  4148  4151  4152     9 
 4149  4148  4151  4153     9 
 4149  4148  4151  4154     9 
 4150  4148  4151  4152     9 
 4150  4148  4151  4153     9 
 4150  4148  4151  4154     9 
 4159  4155  4156  4157     9 
 4159  4155  4156  4158     9 
 4159  4155  4156  4171     9 
 4163  4155  4156  4157     9 
 4163  4155  4156  4158     9 
 4163  4155  4156  4171     9 
 4167  4155  4156  4157     9 
 4167  4155  4156  4158     9 
 4167  4155  4156  4171     9 
 4156  4155  4159  4160     9 
 4156  4155  4159  4161     9 
 4156  4155  4159  4162     9 
 4163  4155  4159  4160     9 
 4163  4155  4159  4161     9 
 4163  4155  4159  4162     9 
 4167  4155  4159  4160     9 
 4167  4155  4159  4161     9 
 4167  4155  4159  4162     9 
 4156  4155  4163  4164     9 
 4156  4155  4163  4165     9 
 4156  4155  4163  4166     9 
 4159  4155  4163  4164     9 
 4159  4155  4163  4165     9 
 4159  4155  4163  4166     9 
 4167  4155  4163  4164     9 
 4167  4155  4163  4165     9 
 4167  4155  4163  4166     9 
 4156  4155  4167  4168     9 
 4156  4155  4167  4169     9 
 4156  4155  4167  4170     9 
 4159  4155  4167  4168     9 
 4159  4155  4167  4169     9 
 4159  4155  4167  4170     9 
 4163  4155  4167  4168     9 
 4163  4155  4167  4169     9 
 4163  4155  4167  4170     9 
 4155  4156  4171  4172     9 
 4155  4156  4171  4173     9 
 4155  4156  4171  4177     9 
 4157  4156  4171  4172     9 
 4157  4156  4171  4173     9 
 4157  4156  4171  4177     9 
 4158  4156  4171  4172     9 
 4158  4156  4171  4173     9 
 4158  4156  4171  4177     9 
 4156  4171  4177  4174     9 
 4172  4171  4177  4174     9 
 4173  4171  4177  4174     9 
 4175  4174  4177  4171     9 
 4176  4174  4177  4171     9 
 4178  4174  4177  4171     9 
 4175  4174  4178  4179     9 
 4176  4174  4178  4179     9 
 4177  4174  4178  4179     9 
 4174  4178  4179  4180     9 
 4174  4178  4179  4181     9 
 4174  4178  4179  4182     9 
 4178  4179  4182  4183     9 
 4178  4179  4182  4184     9 
 4178  4179  4182  4190     9 
 4180  4179  4182  4183     9 
 4180  4179  4182  4184     9 
 4180  4179  4182  4190     9 
 4181  4179  4182  4183     9 
 4181  4179  4182  4184     9 
 4181  4179  4182  4190     9 
 4179  4182  4184  4185     9 
 4183  4182  4184  4185     9 
 4190  4182  4184  4185     9 
 4179  4182  4190  4191     9 
 4179  4182  4190  4192     9 
 4179  4182  4190  4193     9 
 4183  4182  4190  4191     9 
 4183  4182  4190  4192     9 
 4183  4182  4190  4193     9 
 4184  4182  4190  4191     9 
 4184  4182  4190  4192     9 
 4184  4182  4190  4193     9 
 4182  4184  4185  4186     9 
 4182  4184  4185  4187     9 
 4184  4185  4187  4188     9 
 4184  4185  4187  4189     9 
 4184  4185  4187  4199     9 
 4186  4185  4187  4188     9 
 4186  4185  4187  4189     9 
 4186  4185  4187  4199     9 
 4185  4187  4199  4200     9 
 4185  4187  4199  4201     9 
 4185  4187  4199  4202     9 
 4188  4187  4199  4200     9 
 4188  4187  4199  4201     9 
 4188  4187  4199  4202     9 
 4189  4187  4199  4200     9 
 4189  4187  4199  4201     9 
 4189  4187  4199  4202     9 
 4182  4190  4193  4194     9 
 4191  4190  4193  4194     9 
 4192  4190  4193  4194     9 
 4190  4193  4194  4195     9 
 4190  4193  4194  4196     9 
 4193  4194  4196  4197     9 
 4193  4194  4196  4198     9 
 4193  4194  4196  4246     9 
 4195  4194  4196  4197     9 
 4195  4194  4196  4198     9 
 4195  4194  4196  4246     9 
 4194  4196  4246  4247     9 
 4194  4196  4246  4248     9 
 4194  4196  4246  4249     9 
 4197  4196  4246  4247     9 
 4197  4196  4246  4248     9 
 4197  4196  4246  4249     9 
 4198  4196  4246  4247     9 
 4198  4196  4246  4248     9 
 4198  4196  4246  4249     9 
 4187  4199  4202  4203     9 
 4187  4199  4202  4204     9 
 4187  4199  4202  4205     9 
 4200  4199  4202  4203     9 
 4200  4199  4202  4204     9 
 4200  4199  4202  4205     9 
 4201  4199  4202  4203     9 
 4201  4199  4202  4204     9 
 4201  4199  4202  4205     9 
 4199  4202  4205  4206     9 
 4199  4202  4205  4207     9 
 4199  4202  4205  4208     9 
 4203  4202  4205  4206     9 
 4203  4202  4205  4207     9 
 4203  4202  4205  4208     9 
 4204  4202  4205  4206     9 
 4204  4202  4205  4207     9 
 4204  4202  4205  4208     9 
 4202  4205  4208  4209     9 
 4202  4205  4208  4210     9 
 4202  4205  4208  4211     9 
 4206  4205  4208  4209     9 
 4206  4205  4208  4210     9 
 4206  4205  4208  4211     9 
 4207  4205  4208  4209     9 
 4207  4205  4208  4210     9 
 4207  4205  4208  4211     9 
 4205  4208  4211  4212     9 
 4205  4208  4211  4213     9 
 4205  4208  4211  4214     9 
 4209  4208  4211  4212     9 
 4209  4208  4211  4213     9 
 4209  4208  4211  4214     9 
 4210  4208  4211  4212     9 
 4210  4208  4211  4213     9 
 4210  4208  4211  4214     9 
 4208  4211  4214  4215     9 
 4208  4211  4214  4216     9 
 4208  4211  4214  4217     9 
 4212  4211  4214  4215     9 
 4212  4211  4214  4216     9 
 4212  4211  4214  4217     9 
 4213  4211  4214  4215     9 
 4213  4211  4214  4216     9 
 4213  4211  4214  4217     9 
 4211  4214  4217  4218     9 
 4211  4214  4217  4219     9 
 4215  4214  4217  4218     9 
 4215  4214  4217  4219     9 
 4216  4214  4217  4218     9 
 4216  4214  4217  4219     9 
 4214  4217  4219  4220     9 
 4214  4217  4219  4221     9 
 4218  4217  4219  4220     9 
 4218  4217  4219  4221     9 
 4217  4219  4221  4222     9 
 4217  4219  4221  4223     9 
 4217  4219  4221  4224     9 
 4220  4219  4221  4222     9 
 4220  4219  4221  4223     9 
 4220  4219  4221  4224     9 
 4219  4221  4224  4225     9 
 4219  4221  4224  4226     9 
 4219  4221  4224  4227     9 
 4222  4221  4224  4225     9 
 4222  4221  4224  4226     9 
 4222  4221  4224  4227     9 
 4223  4221  4224  4225     9 
 4223  4221  4224  4226     9 
 4223  4221  4224  4227     9 
 4221  4224  4227  4228     9 
 4221  4224  4227  4229     9 
 4221  4224  4227  4230     9 
 4225  4224  4227  4228     9 
 4225  4224  4227  4229     9 
 4225  4224  4227  4230     9 
 4226  4224  4227  4228     9 
 4226  4224  4227  4229     9 
 4226  4224  4227  4230     9 
 4224  4227  4230  4231     9 
 4224  4227  4230  4232     9 
 4224  4227  4230  4233     9 
 4228  4227  4230  4231     9 
 4228  4227  4230  4232     9 
 4228  4227  4230  4233     9 
 4229  4227  4230  4231     9 
 4229  4227  4230  4232     9 
 4229  4227  4230  4233     9 
 4227  4230  4233  4234     9 
 4227  4230  4233  4235     9 
 4227  4230  4233  4236     9 
 4231  4230  4233  4234     9 
 4231  4230  4233  4235     9 
 4231  4230  4233  4236     9 
 4232  4230  4233  4234     9 
 4232  4230  4233  4235     9 
 4232  4230  4233  4236     9 
 4230  4233  4236  4237     9 
 4230  4233  4236  4238     9 
 4230  4233  4236  4239     9 
 4234  4233  4236  4237     9 
 4234  4233  4236  4238     9 
 4234  4233  4236  4239     9 
 4235  4233  4236  4237     9 
 4235  4233  4236  4238     9 
 4235  4233  4236  4239     9 
 4233  4236  4239  4240     9 
 4233  4236  4239  4241     9 
 4233  4236  4239  4242     9 
 4237  4236  4239  4240     9 
 4237  4236  4239  4241     9 
 4237  4236  4239  4242     9 
 4238  4236  4239  4240     9 
 4238  4236  4239  4241     9 
 4238  4236  4239  4242     9 
 4236  4239  4242  4243     9 
 4236  4239  4242  4244     9 
 4236  4239  4242  4245     9 
 4240  4239  4242  4243     9 
 4240  4239  4242  4244     9 
 4240  4239  4242  4245     9 
 4241  4239  4242  4243     9 
 4241  4239  4242  4244     9 
 4241  4239  4242  4245     9 
 4196  4246  4249  4250     9 
 4196  4246  4249  4251     9 
 4196  4246  4249  4252     9 
 4247  4246  4249  4250     9 
 4247  4246  4249  4251     9 
 4247  4246  4249  4252     9 
 4248  4246  4249  4250     9 
 4248  4246  4249  4251     9 
 4248  4246  4249  4252     9 
 4246  4249  4252  4253     9 
 4246  4249  4252  4254     9 
 4246  4249  4252  4255     9 
 4250  4249  4252  4253     9 
 4250  4249  4252  4254     9 
 4250  4249  4252  4255     9 
 4251  4249  4252  4253     9 
 4251  4249  4252  4254     9 
 4251  4249  4252  4255     9 
 4249  4252  4255  4256     9 
 4249  4252  4255  4257     9 
 4249  4252  4255  4258     9 
 4253  4252  4255  4256     9 
 4253  4252  4255  4257     9 
 4253  4252  4255  4258     9 
 4254  4252  4255  4256     9 
 4254  4252  4255  4257     9 
 4254  4252  4255  4258     9 
 4252  4255  4258  4259     9 
 4252  4255  4258  4260     9 
 4252  4255  4258  4261     9 
 4256  4255  4258  4259     9 
 4256  4255  4258  4260     9 
 4256  4255  4258  4261     9 
 4257  4255  4258  4259     9 
 4257  4255  4258  4260     9 
 4257  4255  4258  4261     9 
 4255  4258  4261  4262     9 
 4255  4258  4261  4263     9 
 4255  4258  4261  4264     9 
 4259  4258  4261  4262     9 
 4259  4258  4261  4263     9 
 4259  4258  4261  4264     9 
 4260  4258  4261  4262     9 
 4260  4258  4261  4263     9 
 4260  4258  4261  4264     9 
 4258  4261  4264  4265     9 
 4258  4261  4264  4266     9 
 4258  4261  4264  4267     9 
 4262  4261  4264  4265     9 
 4262  4261  4264  4266     9 
 4262  4261  4264  4267     9 
 4263  4261  4264  4265     9 
 4263  4261  4264  4266     9 
 4263  4261  4264  4267     9 
 4261  4264  4267  4268     9 
 4261  4264  4267  4269     9 
 4261  4264  4267  4270     9 
 4265  4264  4267  4268     9 
 4265  4264  4267  4269     9 
 4265  4264  4267  4270     9 
 4266  4264  4267  4268     9 
 4266  4264  4267  4269     9 
 4266  4264  4267  4270     9 
 4264  4267  4270  4271     9 
 4264  4267  4270  4272     9 
 4264  4267  4270  4273     9 
 4268  4267  4270  4271     9 
 4268  4267  4270  4272     9 
 4268  4267  4270  4273     9 
 4269  4267  4270  4271     9 
 4269  4267  4270  4272     9 
 4269  4267  4270  4273     9 
 4267  4270  4273  4274     9 
 4267  4270  4273  4275     9 
 4267  4270  4273  4276     9 
 4271  4270  4273  4274     9 
 4271  4270  4273  4275     9 
 4271  4270  4273  4276     9 
 4272  4270  4273  4274     9 
 4272  4270  4273  4275     9 
 4272  4270  4273  4276     9 
 4270  4273  4276  4277     9 
 4270  4273  4276  4278     9 
 4270  4273  4276  4279     9 
 4274  4273  4276  4277     9 
 4274  4273  4276  4278     9 
 4274  4273  4276  4279     9 
 4275  4273  4276  4277     9 
 4275  4273  4276  4278     9 
 4275  4273  4276  4279     9 
 4273  4276  4279  4280     9 
 4273  4276  4279  4281     9 
 4273  4276  4279  4282     9 
 4277  4276  4279  4280     9 
 4277  4276  4279  4281     9 
 4277  4276  4279  4282     9 
 4278  4276  4279  4280     9 
 4278  4276  4279  4281     9 
 4278  4276  4279  4282     9 
 4276  4279  4282  4283     9 
 4276  4279  4282  4284     9 
 4276  4279  4282  4285     9 
 4280  4279  4282  4283     9 
 4280  4279  4282  4284     9 
 4280  4279  4282  4285     9 
 4281  4279  4282  4283     9 
 4281  4279  4282  4284     9 
 4281  4279  4282  4285     9 
 4279  4282  4285  4286     9 
 4279  4282  4285  4287     9 
 4279  4282  4285  4288     9 
 4283  4282  4285  4286     9 
 4283  4282  4285  4287     9 
 4283  4282  4285  4288     9 
 4284  4282  4285  4286     9 
 4284  4282  4285  4287     9 
 4284  4282  4285  4288     9 
 4293  4289  4290  4291     9 
 4293  4289  4290  4292     9 
 4293  4289  4290  4305     9 
 4297  4289  4290  4291     9 
 4297  4289  4290  4292     9 
 4297  4289  4290  4305     9 
 4301  4289  4290  4291     9 
 4301  4289  4290  4292     9 
 4301  4289  4290  4305     9 
 4290  4289  4293  4294     9 
 4290  4289  4293  4295     9 
 4290  4289  4293  4296     9 
 4297  4289  4293  4294     9 
 4297  4289  4293  4295     9 
 4297  4289  4293  4296     9 
 4301  4289  4293  4294     9 
 4301  4289  4293  4295     9 
 4301  4289  4293  4296     9 
 4290  4289  4297  4298     9 
 4290  4289  4297  4299     9 
 4290  4289  4297  4300     9 
 4293  4289  4297  4298     9 
 4293  4289  4297  4299     9 
 4293  4289  4297  4300     9 
 4301  4289  4297  4298     9 
 4301  4289  4297  4299     9 
 4301  4289  4297  4300     9 
 4290  4289  4301  4302     9 
 4290  4289  4301  4303     9 
 4290  4289  4301  4304     9 
 4293  4289  4301  4302     9 
 4293  4289  4301  4303     9 
 4293  4289  4301  4304     9 
 4297  4289  4301  4302     9 
 4297  4289  4301  4303     9 
 4297  4289  4301  4304     9 
 4289  4290  4305  4306     9 
 4289  4290  4305  4307     9 
 4289  4290  4305  4311     9 
 4291  4290  4305  4306     9 
 4291  4290  4305  4307     9 
 4291  4290  4305  4311     9 
 4292  4290  4305  4306     9 
 4292  4290  4305  4307     9 
 4292  4290  4305  4311     9 
 4290  4305  4311  4308     9 
 4306  4305  4311  4308     9 
 4307  4305  4311  4308     9 
 4309  4308  4311  4305     9 
 4310  4308  4311  4305     9 
 4312  4308  4311  4305     9 
 4309  4308  4312  4313     9 
 4310  4308  4312  4313     9 
 4311  4308  4312  4313     9 
 4308  4312  4313  4314     9 
 4308  4312  4313  4315     9 
 4308  4312  4313  4316     9 
 4312  4313  4316  4317     9 
 4312  4313  4316  4318     9 
 4312  4313  4316  4324     9 
 4314  4313  4316  4317     9 
 4314  4313  4316  4318     9 
 4314  4313  4316  4324     9 
 4315  4313  4316  4317     9 
 4315  4313  4316  4318     9 
 4315  4313  4316  4324     9 
 4313  4316  4318  4319     9 
 4317  4316  4318  4319     9 
 4324  4316  4318  4319     9 
 4313  4316  4324  4325     9 
 4313  4316  4324  4326     9 
 4313  4316  4324  4327     9 
 4317  4316  4324  4325     9 
 4317  4316  4324  4326     9 
 4317  4316  4324  4327     9 
 4318  4316  4324  4325     9 
 4318  4316  4324  4326     9 
 4318  4316  4324  4327     9 
 4316  4318  4319  4320     9 
 4316  4318  4319  4321     9 
 4318  4319  4321  4322     9 
 4318  4319  4321  4323     9 
 4318  4319  4321  4333     9 
 4320  4319  4321  4322     9 
 4320  4319  4321  4323     9 
 4320  4319  4321  4333     9 
 4319  4321  4333  4334     9 
 4319  4321  4333  4335     9 
 4319  4321  4333  4336     9 
 4322  4321  4333  4334     9 
 4322  4321  4333  4335     9 
 4322  4321  4333  4336     9 
 4323  4321  4333  4334     9 
 4323  4321  4333  4335     9 
 4323  4321  4333  4336     9 
 4316  4324  4327  4328     9 
 4325  4324  4327  4328     9 
 4326  4324  4327  4328     9 
 4324  4327  4328  4329     9 
 4324  4327  4328  4330     9 
 4327  4328  4330  4331     9 
 4327  4328  4330  4332     9 
 4327  4328  4330  4380     9 
 4329  4328  4330  4331     9 
 4329  4328  4330  4332     9 
 4329  4328  4330  4380     9 
 4328  4330  4380  4381     9 
 4328  4330  4380  4382     9 
 4328  4330  4380  4383     9 
 4331  4330  4380  4381     9 
 4331  4330  4380  4382     9 
 4331  4330  4380  4383     9 
 4332  4330  4380  4381     9 
 4332  4330  4380  4382     9 
 4332  4330  4380  4383     9 
 4321  4333  4336  4337     9 
 4321  4333  4336  4338     9 
 4321  4333  4336  4339     9 
 4334  4333  4336  4337     9 
 4334  4333  4336  4338     9 
 4334  4333  4336  4339     9 
 4335  4333  4336  4337     9 
 4335  4333  4336  4338     9 
 4335  4333  4336  4339     9 
 4333  4336  4339  4340     9 
 4333  4336  4339  4341     9 
 4333  4336  4339  4342     9 
 4337  4336  4339  4340     9 
 4337  4336  4339  4341     9 
 4337  4336  4339  4342     9 
 4338  4336  4339  4340     9 
 4338  4336  4339  4341     9 
 4338  4336  4339  4342     9 
 4336  4339  4342  4343     9 
 4336  4339  4342  4344     9 
 4336  4339  4342  4345     9 
 4340  4339  4342  4343     9 
 4340  4339  4342  4344     9 
 4340  4339  4342  4345     9 
 4341  4339  4342  4343     9 
 4341  4339  4342  4344     9 
 4341  4339  4342  4345     9 
 4339  4342  4345  4346     9 
 4339  4342  4345  4347     9 
 4339  4342  4345  4348     9 
 4343  4342  4345  4346     9 
 4343  4342  4345  4347     9 
 4343  4342  4345  4348     9 
 4344  4342  4345  4346     9 
 4344  4342  4345  4347     9 
 4344  4342  4345  4348     9 
 4342  4345  4348  4349     9 
 4342  4345  4348  4350     9 
 4342  4345  4348  4351     9 
 4346  4345  4348  4349     9 
 4346  4345  4348  4350     9 
 4346  4345  4348  4351     9 
 4347  4345  4348  4349     9 
 4347  4345  4348  4350     9 
 4347  4345  4348  4351     9 
 4345  4348  4351  4352     9 
 4345  4348  4351  4353     9 
 4349  4348  4351  4352     9 
 4349  4348  4351  4353     9 
 4350  4348  4351  4352     9 
 4350  4348  4351  4353     9 
 4348  4351  4353  4354     9 
 4348  4351  4353  4355     9 
 4352  4351  4353  4354     9 
 4352  4351  4353  4355     9 
 4351  4353  4355  4356     9 
 4351  4353  4355  4357     9 
 4351  4353  4355  4358     9 
 4354  4353  4355  4356     9 
 4354  4353  4355  4357     9 
 4354  4353  4355  4358     9 
 4353  4355  4358  4359     9 
 4353  4355  4358  4360     9 
 4353  4355  4358  4361     9 
 4356  4355  4358  4359     9 
 4356  4355  4358  4360     9 
 4356  4355  4358  4361     9 
 4357  4355  4358  4359     9 
 4357  4355  4358  4360     9 
 4357  4355  4358  4361     9 
 4355  4358  4361  4362     9 
 4355  4358  4361  4363     9 
 4355  4358  4361  4364     9 
 4359  4358  4361  4362     9 
 4359  4358  4361  4363     9 
 4359  4358  4361  4364     9 
 4360  4358  4361  4362     9 
 4360  4358  4361  4363     9 
 4360  4358  4361  4364     9 
 4358  4361  4364  4365     9 
 4358  4361  4364  4366     9 
 4358  4361  4364  4367     9 
 4362  4361  4364  4365     9 
 4362  4361  4364  4366     9 
 4362  4361  4364  4367     9 
 4363  4361  4364  4365     9 
 4363  4361  4364  4366     9 
 4363  4361  4364  4367     9 
 4361  4364  4367  4368     9 
 4361  4364  4367  4369     9 
 4361  4364  4367  4370     9 
 4365  4364  4367  4368     9 
 4365  4364  4367  4369     9 
 4365  4364  4367  4370     9 
 4366  4364  4367  4368     9 
 4366  4364  4367  4369     9 
 4366  4364  4367  4370     9 
 4364  4367  4370  4371     9 
 4364  4367  4370  4372     9 
 4364  4367  4370  4373     9 
 4368  4367  4370  4371     9 
 4368  4367  4370  4372     9 
 4368  4367  4370  4373     9 
 4369  4367  4370  4371     9 
 4369  4367  4370  4372     9 
 4369  4367  4370  4373     9 
 4367  4370  4373  4374     9 
 4367  4370  4373  4375     9 
 4367  4370  4373  4376     9 
 4371  4370  4373  4374     9 
 4371  4370  4373  4375     9 
 4371  4370  4373  4376     9 
 4372  4370  4373  4374     9 
 4372  4370  4373  4375     9 
 4372  4370  4373  4376     9 
 4370  4373  4376  4377     9 
 4370  4373  4376  4378     9 
 4370  4373  4376  4379     9 
 4374  4373  4376  4377     9 
 4374  4373  4376  4378     9 
 4374  4373  4376  4379     9 
 4375  4373  4376  4377     9 
 4375  4373  4376  4378     9 
 4375  4373  4376  4379     9 
 4330  4380  4383  4384     9 
 4330  4380  4383  4385     9 
 4330  4380  4383  4386     9 
 4381  4380  4383  4384     9 
 4381  4380  4383  4385     9 
 4381  4380  4383  4386     9 
 4382  4380  4383  4384     9 
 4382  4380  4383  4385     9 
 4382  4380  4383  4386     9 
 4380  4383  4386  4387     9 
 4380  4383  4386  4388     9 
 4380  4383  4386  4389     9 
 4384  4383  4386  4387     9 
 4384  4383  4386  4388     9 
 4384  4383  4386  4389     9 
 4385  4383  4386  4387     9 
 4385  4383  4386  4388     9 
 4385  4383  4386  4389     9 
 4383  4386  4389  4390     9 
 4383  4386  4389  4391     9 
 4383  4386  4389  4392     9 
 4387  4386  4389  4390     9 
 4387  4386  4389  4391     9 
 4387  4386  4389  4392     9 
 4388  4386  4389  4390     9 
 4388  4386  4389  4391     9 
 4388  4386  4389  4392     9 
 4386  4389  4392  4393     9 
 4386  4389  4392  4394     9 
 4386  4389  4392  4395     9 
 4390  4389  4392  4393     9 
 4390  4389  4392  4394     9 
 4390  4389  4392  4395     9 
 4391  4389  4392  4393     9 
 4391  4389  4392  4394     9 
 4391  4389  4392  4395     9 
 4389  4392  4395  4396     9 
 4389  4392  4395  4397     9 
 4389  4392  4395  4398     9 
 4393  4392  4395  4396     9 
 4393  4392  4395  4397     9 
 4393  4392  4395  4398     9 
 4394  4392  4395  4396     9 
 4394  4392  4395  4397     9 
 4394  4392  4395  4398     9 
 4392  4395  4398  4399     9 
 4392  4395  4398  4400     9 
 4392  4395  4398  4401     9 
 4396  4395  4398  4399     9 
 4396  4395  4398  4400     9 
 4396  4395  4398  4401     9 
 4397  4395  4398  4399     9 
 4397  4395  4398  4400     9 
 4397  4395  4398  4401     9 
 4395  4398  4401  4402     9 
 4395  4398  4401  4403     9 
 4395  4398  4401  4404     9 
 4399  4398  4401  4402     9 
 4399  4398  4401  4403     9 
 4399  4398  4401  4404     9 
 4400  4398  4401  4402     9 
 4400  4398  4401  4403     9 
 4400  4398  4401  4404     9 
 4398  4401  4404  4405     9 
 4398  4401  4404  4406     9 
 4398  4401  4404  4407     9 
 4402  4401  4404  4405     9 
 4402  4401  4404  4406     9 
 4402  4401  4404  4407     9 
 4403  4401  4404  4405     9 
 4403  4401  4404  4406     9 
 4403  4401  4404  4407     9 
 4401  4404  4407  4408     9 
 4401  4404  4407  4409     9 
 4401  4404  4407  4410     9 
 4405  4404  4407  4408     9 
 4405  4404  4407  4409     9 
 4405  4404  4407  4410     9 
 4406  4404  4407  4408     9 
 4406  4404  4407  4409     9 
 4406  4404  4407  4410     9 
 4404  4407  4410  4411     9 
 4404  4407  4410  4412     9 
 4404  4407  4410  4413     9 
 4408  4407  4410  4411     9 
 4408  4407  4410  4412     9 
 4408  4407  4410  4413     9 
 4409  4407  4410  4411     9 
 4409  4407  4410  4412     9 
 4409  4407  4410  4413     9 
 4407  4410  4413  4414     9 
 4407  4410  4413  4415     9 
 4407  4410  4413  4416     9 
 4411  4410  4413  4414     9 
 4411  4410  4413  4415     9 
 4411  4410  4413  4416     9 
 4412  4410  4413  4414     9 
 4412  4410  4413  4415     9 
 4412  4410  4413  4416     9 
 4410  4413  4416  4417     9 
 4410  4413  4416  4418     9 
 4410  4413  4416  4419     9 
 4414  4413  4416  4417     9 
 4414  4413  4416  4418     9 
 4414  4413  4416  4419     9 
 4415  4413  4416  4417     9 
 4415  4413  4416  4418     9 
 4415  4413  4416  4419     9 
 4413  4416  4419  4420     9 
 4413  4416  4419  4421     9 
 4413  4416  4419  4422     9 
 4417  4416  4419  4420     9 
 4417  4416  4419  4421     9 
 4417  4416  4419  4422     9 
 4418  4416  4419  4420     9 
 4418  4416  4419  4421     9 
 4418  4416  4419  4422     9 
 4427  4423  4424  4425     9 
 4427  4423  4424  4426     9 
 4427  4423  4424  4439     9 
 4431  4423  4424  4425     9 
 4431  4423  4424  4426     9 
 4431  4423  4424  4439     9 
 4435  4423  4424  4425     9 
 4435  4423  4424  4426     9 
 4435  4423  4424  4439     9 
 4424  4423  4427  4428     9 
 4424  4423  4427  4429     9 
 4424  4423  4427  4430     9 
 4431  4423  4427  4428     9 
 4431  4423  4427  4429     9 
 4431  4423  4427  4430     9 
 4435  4423  4427  4428     9 
 4435  4423  4427  4429     9 
 4435  4423  4427  4430     9 
 4424  4423  4431  4432     9 
 4424  4423  4431  4433     9 
 4424  4423  4431  4434     9 
 4427  4423  4431  4432     9 
 4427  4423  4431  4433     9 
 4427  4423  4431  4434     9 
 4435  4423  4431  4432     9 
 4435  4423  4431  4433     9 
 4435  4423  4431  4434     9 
 4424  4423  4435  4436     9 
 4424  4423  4435  4437     9 
 4424  4423  4435  4438     9 
 4427  4423  4435  4436     9 
 4427  4423  4435  4437     9 
 4427  4423  4435  4438     9 
 4431  4423  4435  4436     9 
 4431  4423  4435  4437     9 
 4431  4423  4435  4438     9 
 4423  4424  4439  4440     9 
 4423  4424  4439  4441     9 
 4423  4424  4439  4445     9 
 4425  4424  4439  4440     9 
 4425  4424  4439  4441     9 
 4425  4424  4439  4445     9 
 4426  4424  4439  4440     9 
 4426  4424  4439  4441     9 
 4426  4424  4439  4445     9 
 4424  4439  4445  4442     9 
 4440  4439  4445  4442     9 
 4441  4439  4445  4442     9 
 4443  4442  4445  4439     9 
 4444  4442  4445  4439     9 
 4446  4442  4445  4439     9 
 4443  4442  4446  4447     9 
 4444  4442  4446  4447     9 
 4445  4442  4446  4447     9 
 4442  4446  4447  4448     9 
 4442  4446  4447  4449     9 
 4442  4446  4447  4450     9 
 4446  4447  4450  4451     9 
 4446  4447  4450  4452     9 
 4446  4447  4450  4458     9 
 4448  4447  4450  4451     9 
 4448  4447  4450  4452     9 
 4448  4447  4450  4458     9 
 4449  4447  4450  4451     9 
 4449  4447  4450  4452     9 
 4449  4447  4450  4458     9 
 4447  4450  4452  4453     9 
 4451  4450  4452  4453     9 
 4458  4450  4452  4453     9 
 4447  4450  4458  4459     9 
 4447  4450  4458  4460     9 
 4447  4450  4458  4461     9 
 4451  4450  4458  4459     9 
 4451  4450  4458  4460     9 
 4451  4450  4458  4461     9 
 4452  4450  4458  4459     9 
 4452  4450  4458  4460     9 
 4452  4450  4458  4461     9 
 4450  4452  4453  4454     9 
 4450  4452  4453  4455     9 
 4452  4453  4455  4456     9 
 4452  4453  4455  4457     9 
 4452  4453  4455  4467     9 
 4454  4453  4455  4456     9 
 4454  4453  4455  4457     9 
 4454  4453  4455  4467     9 
 4453  4455  4467  4468     9 
 4453  4455  4467  4469     9 
 4453  4455  4467  4470     9 
 4456  4455  4467  4468     9 
 4456  4455  4467  4469     9 
 4456  4455  4467  4470     9 
 4457  4455  4467  4468     9 
 4457  4455  4467  4469     9 
 4457  4455  4467  4470     9 
 4450  4458  4461  4462     9 
 4459  4458  4461  4462     9 
 4460  4458  4461  4462     9 
 4458  4461  4462  4463     9 
 4458  4461  4462  4464     9 
 4461  4462  4464  4465     9 
 4461  4462  4464  4466     9 
 4461  4462  4464  4514     9 
 4463  4462  4464  4465     9 
 4463  4462  4464  4466     9 
 4463  4462  4464  4514     9 
 4462  4464  4514  4515     9 
 4462  4464  4514  4516     9 
 4462  4464  4514  4517     9 
 4465  4464  4514  4515     9 
 4465  4464  4514  4516     9 
 4465  4464  4514  4517     9 
 4466  4464  4514  4515     9 
 4466  4464  4514  4516     9 
 4466  4464  4514  4517     9 
 4455  4467  4470  4471     9 
 4455  4467  4470  4472     9 
 4455  4467  4470  4473     9 
 4468  4467  4470  4471     9 
 4468  4467  4470  4472     9 
 4468  4467  4470  4473     9 
 4469  4467  4470  4471     9 
 4469  4467  4470  4472     9 
 4469  4467  4470  4473     9 
 4467  4470  4473  4474     9 
 4467  4470  4473  4475     9 
 4467  4470  4473  4476     9 
 4471  4470  4473  4474     9 
 4471  4470  4473  4475     9 
 4471  4470  4473  4476     9 
 4472  4470  4473  4474     9 
 4472  4470  4473  4475     9 
 4472  4470  4473  4476     9 
 4470  4473  4476  4477     9 
 4470  4473  4476  4478     9 
 4470  4473  4476  4479     9 
 4474  4473  4476  4477     9 
 4474  4473  4476  4478     9 
 4474  4473  4476  4479     9 
 4475  4473  4476  4477     9 
 4475  4473  4476  4478     9 
 4475  4473  4476  4479     9 
 4473  4476  4479  4480     9 
 4473  4476  4479  4481     9 
 4473  4476  4479  4482     9 
 4477  4476  4479  4480     9 
 4477  4476  4479  4481     9 
 4477  4476  4479  4482     9 
 4478  4476  4479  4480     9 
 4478  4476  4479  4481     9 
 4478  4476  4479  4482     9 
 4476  4479  4482  4483     9 
 4476  4479  4482  4484     9 
 4476  4479  4482  4485     9 
 4480  4479  4482  4483     9 
 4480  4479  4482  4484     9 
 4480  4479  4482  4485     9 
 4481  4479  4482  4483     9 
 4481  4479  4482  4484     9 
 4481  4479  4482  4485     9 
 4479  4482  4485  4486     9 
 4479  4482  4485  4487     9 
 4483  4482  4485  4486     9 
 4483  4482  4485  4487     9 
 4484  4482  4485  4486     9 
 4484  4482  4485  4487     9 
 4482  4485  4487  4488     9 
 4482  4485  4487  4489     9 
 4486  4485  4487  4488     9 
 4486  4485  4487  4489     9 
 4485  4487  4489  4490     9 
 4485  4487  4489  4491     9 
 4485  4487  4489  4492     9 
 4488  4487  4489  4490     9 
 4488  4487  4489  4491     9 
 4488  4487  4489  4492     9 
 4487  4489  4492  4493     9 
 4487  4489  4492  4494     9 
 4487  4489  4492  4495     9 
 4490  4489  4492  4493     9 
 4490  4489  4492  4494     9 
 4490  4489  4492  4495     9 
 4491  4489  4492  4493     9 
 4491  4489  4492  4494     9 
 4491  4489  4492  4495     9 
 4489  4492  4495  4496     9 
 4489  4492  4495  4497     9 
 4489  4492  4495  4498     9 
 4493  4492  4495  4496     9 
 4493  4492  4495  4497     9 
 4493  4492  4495  4498     9 
 4494  4492  4495  4496     9 
 4494  4492  4495  4497     9 
 4494  4492  4495  4498     9 
 4492  4495  4498  4499     9 
 4492  4495  4498  4500     9 
 4492  4495  4498  4501     9 
 4496  4495  4498  4499     9 
 4496  4495  4498  4500     9 
 4496  4495  4498  4501     9 
 4497  4495  4498  4499     9 
 4497  4495  4498  4500     9 
 4497  4495  4498  4501     9 
 4495  4498  4501  4502     9 
 4495  4498  4501  4503     9 
 4495  4498  4501  4504     9 
 4499  4498  4501  4502     9 
 4499  4498  4501  4503     9 
 4499  4498  4501  4504     9 
 4500  4498  4501  4502     9 
 4500  4498  4501  4503     9 
 4500  4498  4501  4504     9 
 4498  4501  4504  4505     9 
 4498  4501  4504  4506     9 
 4498  4501  4504  4507     9 
 4502  4501  4504  4505     9 
 4502  4501  4504  4506     9 
 4502  4501  4504  4507     9 
 4503  4501  4504  4505     9 
 4503  4501  4504  4506     9 
 4503  4501  4504  4507     9 
 4501  4504  4507  4508     9 
 4501  4504  4507  4509     9 
 4501  4504  4507  4510     9 
 4505  4504  4507  4508     9 
 4505  4504  4507  4509     9 
 4505  4504  4507  4510     9 
 4506  4504  4507  4508     9 
 4506  4504  4507  4509     9 
 4506  4504  4507  4510     9 
 4504  4507  4510  4511     9 
 4504  4507  4510  4512     9 
 4504  4507  4510  4513     9 
 4508  4507  4510  4511     9 
 4508  4507  4510  4512     9 
 4508  4507  4510  4513     9 
 4509  4507  4510  4511     9 
 4509  4507  4510  4512     9 
 4509  4507  4510  4513     9 
 4464  4514  4517  4518     9 
 4464  4514  4517  4519     9 
 4464  4514  4517  4520     9 
 4515  4514  4517  4518     9 
 4515  4514  4517  4519     9 
 4515  4514  4517  4520     9 
 4516  4514  4517  4518     9 
 4516  4514  4517  4519     9 
 4516  4514  4517  4520     9 
 4514  4517  4520  4521     9 
 4514  4517  4520  4522     9 
 4514  4517  4520  4523     9 
 4518  4517  4520  4521     9 
 4518  4517  4520  4522     9 
 4518  4517  4520  4523     9 
 4519  4517  4520  4521     9 
 4519  4517  4520  4522     9 
 4519  4517  4520  4523     9 
 4517  4520  4523  4524     9 
 4517  4520  4523  4525     9 
 4517  4520  4523  4526     9 
 4521  4520  4523  4524     9 
 4521  4520  4523  4525     9 
 4521  4520  4523  4526     9 
 4522  4520  4523  4524     9 
 4522  4520  4523  4525     9 
 4522  4520  4523  4526     9 
 4520  4523  4526  4527     9 
 4520  4523  4526  4528     9 
 4520  4523  4526  4529     9 
 4524  4523  4526  4527     9 
 4524  4523  4526  4528     9 
 4524  4523  4526  4529     9 
 4525  4523  4526  4527     9 
 4525  4523  4526  4528     9 
 4525  4523  4526  4529     9 
 4523  4526  4529  4530     9 
 4523  4526  4529  4531     9 
 4523  4526  4529  4532     9 
 4527  4526  4529  4530     9 
 4527  4526  4529  4531     9 
 4527  4526  4529  4532     9 
 4528  4526  4529  4530     9 
 4528  4526  4529  4531     9 
 4528  4526  4529  4532     9 
 4526  4529  4532  4533     9 
 4526  4529  4532  4534     9 
 4526  4529  4532  4535     9 
 4530  4529  4532  4533     9 
 4530  4529  4532  4534     9 
 4530  4529  4532  4535     9 
 4531  4529  4532  4533     9 
 4531  4529  4532  4534     9 
 4531  4529  4532  4535     9 
 4529  4532  4535  4536     9 
 4529  4532  4535  4537     9 
 4529  4532  4535  4538     9 
 4533  4532  4535  4536     9 
 4533  4532  4535  4537     9 
 4533  4532  4535  4538     9 
 4534  4532  4535  4536     9 
 4534  4532  4535  4537     9 
 4534  4532  4535  4538     9 
 4532  4535  4538  4539     9 
 4532  4535  4538  4540     9 
 4532  4535  4538  4541     9 
 4536  4535  4538  4539     9 
 4536  4535  4538  4540     9 
 4536  4535  4538  4541     9 
 4537  4535  4538  4539     9 
 4537  4535  4538  4540     9 
 4537  4535  4538  4541     9 
 4535  4538  4541  4542     9 
 4535  4538  4541  4543     9 
 4535  4538  4541  4544     9 
 4539  4538  4541  4542     9 
 4539  4538  4541  4543     9 
 4539  4538  4541  4544     9 
 4540  4538  4541  4542     9 
 4540  4538  4541  4543     9 
 4540  4538  4541  4544     9 
 4538  4541  4544  4545     9 
 4538  4541  4544  4546     9 
 4538  4541  4544  4547     9 
 4542  4541  4544  4545     9 
 4542  4541  4544  4546     9 
 4542  4541  4544  4547     9 
 4543  4541  4544  4545     9 
 4543  4541  4544  4546     9 
 4543  4541  4544  4547     9 
 4541  4544  4547  4548     9 
 4541  4544  4547  4549     9 
 4541  4544  4547  4550     9 
 4545  4544  4547  4548     9 
 4545  4544  4547  4549     9 
 4545  4544  4547  4550     9 
 4546  4544  4547  4548     9 
 4546  4544  4547  4549     9 
 4546  4544  4547  4550     9 
 4544  4547  4550  4551     9 
 4544  4547  4550  4552     9 
 4544  4547  4550  4553     9 
 4548  4547  4550  4551     9 
 4548  4547  4550  4552     9 
 4548  4547  4550  4553     9 
 4549  4547  4550  4551     9 
 4549  4547  4550  4552     9 
 4549  4547  4550  4553     9 
 4547  4550  4553  4554     9 
 4547  4550  4553  4555     9 
 4547  4550  4553  4556     9 
 4551  4550  4553  4554     9 
 4551  4550  4553  4555     9 
 4551  4550  4553  4556     9 
 4552  4550  4553  4554     9 
 4552  4550  4553  4555     9 
 4552  4550  4553  4556     9 
 4561  4557  4558  4559     9 
 4561  4557  4558  4560     9 
 4561  4557  4558  4573     9 
 4565  4557  4558  4559     9 
 4565  4557  4558  4560     9 
 4565  4557  4558  4573     9 
 4569  4557  4558  4559     9 
 4569  4557  4558  4560     9 
 4569  4557  4558  4573     9 
 4558  4557  4561  4562     9 
 4558  4557  4561  4563     9 
 4558  4557  4561  4564     9 
 4565  4557  4561  4562     9 
 4565  4557  4561  4563     9 
 4565  4557  4561  4564     9 
 4569  4557  4561  4562     9 
 4569  4557  4561  4563     9 
 4569  4557  4561  4564     9 
 4558  4557  4565  4566     9 
 4558  4557  4565  4567     9 
 4558  4557  4565  4568     9 
 4561  4557  4565  4566     9 
 4561  4557  4565  4567     9 
 4561  4557  4565  4568     9 
 4569  4557  4565  4566     9 
 4569  4557  4565  4567     9 
 4569  4557  4565  4568     9 
 4558  4557  4569  4570     9 
 4558  4557  4569  4571     9 
 4558  4557  4569  4572     9 
 4561  4557  4569  4570     9 
 4561  4557  4569  4571     9 
 4561  4557  4569  4572     9 
 4565  4557  4569  4570     9 
 4565  4557  4569  4571     9 
 4565  4557  4569  4572     9 
 4557  4558  4573  4574     9 
 4557  4558  4573  4575     9 
 4557  4558  4573  4579     9 
 4559  4558  4573  4574     9 
 4559  4558  4573  4575     9 
 4559  4558  4573  4579     9 
 4560  4558  4573  4574     9 
 4560  4558  4573  4575     9 
 4560  4558  4573  4579     9 
 4558  4573  4579  4576     9 
 4574  4573  4579  4576     9 
 4575  4573  4579  4576     9 
 4577  4576  4579  4573     9 
 4578  4576  4579  4573     9 
 4580  4576  4579  4573     9 
 4577  4576  4580  4581     9 
 4578  4576  4580  4581     9 
 4579  4576  4580  4581     9 
 4576  4580  4581  4582     9 
 4576  4580  4581  4583     9 
 4576  4580  4581  4584     9 
 4580  4581  4584  4585     9 
 4580  4581  4584  4586     9 
 4580  4581  4584  4592     9 
 4582  4581  4584  4585     9 
 4582  4581  4584  4586     9 
 4582  4581  4584  4592     9 
 4583  4581  4584  4585     9 
 4583  4581  4584  4586     9 
 4583  4581  4584  4592     9 
 4581  4584  4586  4587     9 
 4585  4584  4586  4587     9 
 4592  4584  4586  4587     9 
 4581  4584  4592  4593     9 
 4581  4584  4592  4594     9 
 4581  4584  4592  4595     9 
 4585  4584  4592  4593     9 
 4585  4584  4592  4594     9 
 4585  4584  4592  4595     9 
 4586  4584  4592  4593     9 
 4586  4584  4592  4594     9 
 4586  4584  4592  4595     9 
 4584  4586  4587  4588     9 
 4584  4586  4587  4589     9 
 4586  4587  4589  4590     9 
 4586  4587  4589  4591     9 
 4586  4587  4589  4601     9 
 4588  4587  4589  4590     9 
 4588  4587  4589  4591     9 
 4588  4587  4589  4601     9 
 4587  4589  4601  4602     9 
 4587  4589  4601  4603     9 
 4587  4589  4601  4604     9 
 4590  4589  4601  4602     9 
 4590  4589  4601  4603     9 
 4590  4589  4601  4604     9 
 4591  4589  4601  4602     9 
 4591  4589  4601  4603     9 
 4591  4589  4601  4604     9 
 4584  4592  4595  4596     9 
 4593  4592  4595  4596     9 
 4594  4592  4595  4596     9 
 4592  4595  4596  4597     9 
 4592  4595  4596  4598     9 
 4595  4596  4598  4599     9 
 4595  4596  4598  4600     9 
 4595  4596  4598  4648     9 
 4597  4596  4598  4599     9 
 4597  4596  4598  4600     9 
 4597  4596  4598  4648     9 
 4596  4598  4648  4649     9 
 4596  4598  4648  4650     9 
 4596  4598  4648  4651     9 
 4599  4598  4648  4649     9 
 4599  4598  4648  4650     9 
 4599  4598  4648  4651     9 
 4600  4598  4648  4649     9 
 4600  4598  4648  4650     9 
 4600  4598  4648  4651     9 
 4589  4601  4604  4605     9 
 4589  4601  4604  4606     9 
 4589  4601  4604  4607     9 
 4602  4601  4604  4605     9 
 4602  4601  4604  4606     9 
 4602  4601  4604  4607     9 
 4603  4601  4604  4605     9 
 4603  4601  4604  4606     9 
 4603  4601  4604  4607     9 
 4601  4604  4607  4608     9 
 4601  4604  4607  4609     9 
 4601  4604  4607  4610     9 
 4605  4604  4607  4608     9 
 4605  4604  4607  4609     9 
 4605  4604  4607  4610     9 
 4606  4604  4607  4608     9 
 4606  4604  4607  4609     9 
 4606  4604  4607  4610     9 
 4604  4607  4610  4611     9 
 4604  4607  4610  4612     9 
 4604  4607  4610  4613     9 
 4608  4607  4610  4611     9 
 4608  4607  4610  4612     9 
 4608  4607  4610  4613     9 
 4609  4607  4610  4611     9 
 4609  4607  4610  4612     9 
 4609  4607  4610  4613     9 
 4607  4610  4613  4614     9 
 4607  4610  4613  4615     9 
 4607  4610  4613  4616     9 
 4611  4610  4613  4614     9 
 4611  4610  4613  4615     9 
 4611  4610  4613  4616     9 
 4612  4610  4613  4614     9 
 4612  4610  4613  4615     9 
 4612  4610  4613  4616     9 
 4610  4613  4616  4617     9 
 4610  4613  4616  4618     9 
 4610  4613  4616  4619     9 
 4614  4613  4616  4617     9 
 4614  4613  4616  4618     9 
 4614  4613  4616  4619     9 
 4615  4613  4616  4617     9 
 4615  4613  4616  4618     9 
 4615  4613  4616  4619     9 
 4613  4616  4619  4620     9 
 4613  4616  4619  4621     9 
 4617  4616  4619  4620     9 
 4617  4616  4619  4621     9 
 4618  4616  4619  4620     9 
 4618  4616  4619  4621     9 
 4616  4619  4621  4622     9 
 4616  4619  4621  4623     9 
 4620  4619  4621  4622     9 
 4620  4619  4621  4623     9 
 4619  4621  4623  4624     9 
 4619  4621  4623  4625     9 
 4619  4621  4623  4626     9 
 4622  4621  4623  4624     9 
 4622  4621  4623  4625     9 
 4622  4621  4623  4626     9 
 4621  4623  4626  4627     9 
 4621  4623  4626  4628     9 
 4621  4623  4626  4629     9 
 4624  4623  4626  4627     9 
 4624  4623  4626  4628     9 
 4624  4623  4626  4629     9 
 4625  4623  4626  4627     9 
 4625  4623  4626  4628     9 
 4625  4623  4626  4629     9 
 4623  4626  4629  4630     9 
 4623  4626  4629  4631     9 
 4623  4626  4629  4632     9 
 4627  4626  4629  4630     9 
 4627  4626  4629  4631     9 
 4627  4626  4629  4632     9 
 4628  4626  4629  4630     9 
 4628  4626  4629  4631     9 
 4628  4626  4629  4632     9 
 4626  4629  4632  4633     9 
 4626  4629  4632  4634     9 
 4626  4629  4632  4635     9 
 4630  4629  4632  4633     9 
 4630  4629  4632  4634     9 
 4630  4629  4632  4635     9 
 4631  4629  4632  4633     9 
 4631  4629  4632  4634     9 
 4631  4629  4632  4635     9 
 4629  4632  4635  4636     9 
 4629  4632  4635  4637     9 
 4629  4632  4635  4638     9 
 4633  4632  4635  4636     9 
 4633  4632  4635  4637     9 
 4633  4632  4635  4638     9 
 4634  4632  4635  4636     9 
 4634  4632  4635  4637     9 
 4634  4632  4635  4638     9 
 4632  4635  4638  4639     9 
 4632  4635  4638  4640     9 
 4632  4635  4638  4641     9 
 4636  4635  4638  4639     9 
 4636  4635  4638  4640     9 
 4636  4635  4638  4641     9 
 4637  4635  4638  4639     9 
 4637  4635  4638  4640     9 
 4637  4635  4638  4641     9 
 4635  4638  4641  4642     9 
 4635  4638  4641  4643     9 
 4635  4638  4641  4644     9 
 4639  4638  4641  4642     9 
 4639  4638  4641  4643     9 
 4639  4638  4641  4644     9 
 4640  4638  4641  4642     9 
 4640  4638  4641  4643     9 
 4640  4638  4641  4644     9 
 4638  4641  4644  4645     9 
 4638  4641  4644  4646     9 
 4638  4641  4644  4647     9 
 4642  4641  4644  4645     9 
 4642  4641  4644  4646     9 
 4642  4641  4644  4647     9 
 4643  4641  4644  4645     9 
 4643  4641  4644  4646     9 
 4643  4641  4644  4647     9 
 4598  4648  4651  4652     9 
 4598  4648  4651  4653     9 
 4598  4648  4651  4654     9 
 4649  4648  4651  4652     9 
 4649  4648  4651  4653     9 
 4649  4648  4651  4654     9 
 4650  4648  4651  4652     9 
 4650  4648  4651  4653     9 
 4650  4648  4651  4654     9 
 4648  4651  4654  4655     9 
 4648  4651  4654  4656     9 
 4648  4651  4654  4657     9 
 4652  4651  4654  4655     9 
 4652  4651  4654  4656     9 
 4652  4651  4654  4657     9 
 4653  4651  4654  4655     9 
 4653  4651  4654  4656     9 
 4653  4651  4654  4657     9 
 4651  4654  4657  4658     9 
 4651  4654  4657  4659     9 
 4651  4654  4657  4660     9 
 4655  4654  4657  4658     9 
 4655  4654  4657  4659     9 
 4655  4654  4657  4660     9 
 4656  4654  4657  4658     9 
 4656  4654  4657  4659     9 
 4656  4654  4657  4660     9 
 4654  4657  4660  4661     9 
 4654  4657  4660  4662     9 
 4654  4657  4660  4663     9 
 4658  4657  4660  4661     9 
 4658  4657  4660  4662     9 
 4658  4657  4660  4663     9 
 4659  4657  4660  4661     9 
 4659  4657  4660  4662     9 
 4659  4657  4660  4663     9 
 4657  4660  4663  4664     9 
 4657  4660  4663  4665     9 
 4657  4660  4663  4666     9 
 4661  4660  4663  4664     9 
 4661  4660  4663  4665     9 
 4661  4660  4663  4666     9 
 4662  4660  4663  4664     9 
 4662  4660  4663  4665     9 
 4662  4660  4663  4666     9 
 4660  4663  4666  4667     9 
 4660  4663  4666  4668     9 
 4660  4663  4666  4669     9 
 4664  4663  4666  4667     9 
 4664  4663  4666  4668     9 
 4664  4663  4666  4669     9 
 4665  4663  4666  4667     9 
 4665  4663  4666  4668     9 
 4665  4663  4666  4669     9 
 4663  4666  4669  4670     9 
 4663  4666  4669  4671     9 
 4663  4666  4669  4672     9 
 4667  4666  4669  4670     9 
 4667  4666  4669  4671     9 
 4667  4666  4669  4672     9 
 4668  4666  4669  4670     9 
 4668  4666  4669  4671     9 
 4668  4666  4669  4672     9 
 4666  4669  4672  4673     9 
 4666  4669  4672  4674     9 
 4666  4669  4672  4675     9 
 4670  4669  4672  4673     9 
 4670  4669  4672  4674     9 
 4670  4669  4672  4675     9 
 4671  4669  4672  4673     9 
 4671  4669  4672  4674     9 
 4671  4669  4672  4675     9 
 4669  4672  4675  4676     9 
 4669  4672  4675  4677     9 
 4669  4672  4675  4678     9 
 4673  4672  4675  4676     9 
 4673  4672  4675  4677     9 
 4673  4672  4675  4678     9 
 4674  4672  4675  4676     9 
 4674  4672  4675  4677     9 
 4674  4672  4675  4678     9 
 4672  4675  4678  4679     9 
 4672  4675  4678  4680     9 
 4672  4675  4678  4681     9 
 4676  4675  4678  4679     9 
 4676  4675  4678  4680     9 
 4676  4675  4678  4681     9 
 4677  4675  4678  4679     9 
 4677  4675  4678  4680     9 
 4677  4675  4678  4681     9 
 4675  4678  4681  4682     9 
 4675  4678  4681  4683     9 
 4675  4678  4681  4684     9 
 4679  4678  4681  4682     9 
 4679  4678  4681  4683     9 
 4679  4678  4681  4684     9 
 4680  4678  4681  4682     9 
 4680  4678  4681  4683     9 
 4680  4678  4681  4684     9 
 4678  4681  4684  4685     9 
 4678  4681  4684  4686     9 
 4678  4681  4684  4687     9 
 4682  4681  4684  4685     9 
 4682  4681  4684  4686     9 
 4682  4681  4684  4687     9 
 4683  4681  4684  4685     9 
 4683  4681  4684  4686     9 
 4683  4681  4684  4687     9 
 4681  4684  4687  4688     9 
 4681  4684  4687  4689     9 
 4681  4684  4687  4690     9 
 4685  4684  4687  4688     9 
 4685  4684  4687  4689     9 
 4685  4684  4687  4690     9 
 4686  4684  4687  4688     9 
 4686  4684  4687  4689     9 
 4686  4684  4687  4690     9 
 4695  4691  4692  4693     9 
 4695  4691  4692  4694     9 
 4695  4691  4692  4707     9 
 4699  4691  4692  4693     9 
 4699  4691  4692  4694     9 
 4699  4691  4692  4707     9 
 4703  4691  4692  4693     9 
 4703  4691  4692  4694     9 
 4703  4691  4692  4707     9 
 4692  4691  4695  4696     9 
 4692  4691  4695  4697     9 
 4692  4691  4695  4698     9 
 4699  4691  4695  4696     9 
 4699  4691  4695  4697     9 
 4699  4691  4695  4698     9 
 4703  4691  4695  4696     9 
 4703  4691  4695  4697     9 
 4703  4691  4695  4698     9 
 4692  4691  4699  4700     9 
 4692  4691  4699  4701     9 
 4692  4691  4699  4702     9 
 4695  4691  4699  4700     9 
 4695  4691  4699  4701     9 
 4695  4691  4699  4702     9 
 4703  4691  4699  4700     9 
 4703  4691  4699  4701     9 
 4703  4691  4699  4702     9 
 4692  4691  4703  4704     9 
 4692  4691  4703  4705     9 
 4692  4691  4703  4706     9 
 4695  4691  4703  4704     9 
 4695  4691  4703  4705     9 
 4695  4691  4703  4706     9 
 4699  4691  4703  4704     9 
 4699  4691  4703  4705     9 
 4699  4691  4703  4706     9 
 4691  4692  4707  4708     9 
 4691  4692  4707  4709     9 
 4691  4692  4707  4713     9 
 4693  4692  4707  4708     9 
 4693  4692  4707  4709     9 
 4693  4692  4707  4713     9 
 4694  4692  4707  4708     9 
 4694  4692  4707  4709     9 
 4694  4692  4707  4713     9 
 4692  4707  4713  4710     9 
 4708  4707  4713  4710     9 
 4709  4707  4713  4710     9 
 4711  4710  4713  4707     9 
 4712  4710  4713  4707     9 
 4714  4710  4713  4707     9 
 4711  4710  4714  4715     9 
 4712  4710  4714  4715     9 
 4713  4710  4714  4715     9 
 4710  4714  4715  4716     9 
 4710  4714  4715  4717     9 
 4710  4714  4715  4718     9 
 4714  4715  4718  4719     9 
 4714  4715  4718  4720     9 
 4714  4715  4718  4726     9 
 4716  4715  4718  4719     9 
 4716  4715  4718  4720     9 
 4716  4715  4718  4726     9 
 4717  4715  4718  4719     9 
 4717  4715  4718  4720     9 
 4717  4715  4718  4726     9 
 4715  4718  4720  4721     9 
 4719  4718  4720  4721     9 
 4726  4718  4720  4721     9 
 4715  4718  4726  4727     9 
 4715  4718  4726  4728     9 
 4715  4718  4726  4729     9 
 4719  4718  4726  4727     9 
 4719  4718  4726  4728     9 
 4719  4718  4726  4729     9 
 4720  4718  4726  4727     9 
 4720  4718  4726  4728     9 
 4720  4718  4726  4729     9 
 4718  4720  4721  4722     9 
 4718  4720  4721  4723     9 
 4720  4721  4723  4724     9 
 4720  4721  4723  4725     9 
 4720  4721  4723  4735     9 
 4722  4721  4723  4724     9 
 4722  4721  4723  4725     9 
 4722  4721  4723  4735     9 
 4721  4723  4735  4736     9 
 4721  4723  4735  4737     9 
 4721  4723  4735  4738     9 
 4724  4723  4735  4736     9 
 4724  4723  4735  4737     9 
 4724  4723  4735  4738     9 
 4725  4723  4735  4736     9 
 4725  4723  4735  4737     9 
 4725  4723  4735  4738     9 
 4718  4726  4729  4730     9 
 4727  4726  4729  4730     9 
 4728  4726  4729  4730     9 
 4726  4729  4730  4731     9 
 4726  4729  4730  4732     9 
 4729  4730  4732  4733     9 
 4729  4730  4732  4734     9 
 4729  4730  4732  4782     9 
 4731  4730  4732  4733     9 
 4731  4730  4732  4734     9 
 4731  4730  4732  4782     9 
 4730  4732  4782  4783     9 
 4730  4732  4782  4784     9 
 4730  4732  4782  4785     9 
 4733  4732  4782  4783     9 
 4733  4732  4782  4784     9 
 4733  4732  4782  4785     9 
 4734  4732  4782  4783     9 
 4734  4732  4782  4784     9 
 4734  4732  4782  4785     9 
 4723  4735  4738  4739     9 
 4723  4735  4738  4740     9 
 4723  4735  4738  4741     9 
 4736  4735  4738  4739     9 
 4736  4735  4738  4740     9 
 4736  4735  4738  4741     9 
 4737  4735  4738  4739     9 
 4737  4735  4738  4740     9 
 4737  4735  4738  4741     9 
 4735  4738  4741  4742     9 
 4735  4738  4741  4743     9 
 4735  4738  4741  4744     9 
 4739  4738  4741  4742     9 
 4739  4738  4741  4743     9 
 4739  4738  4741  4744     9 
 4740  4738  4741  4742     9 
 4740  4738  4741  4743     9 
 4740  4738  4741  4744     9 
 4738  4741  4744  4745     9 
 4738  4741  4744  4746     9 
 4738  4741  4744  4747     9 
 4742  4741  4744  4745     9 
 4742  4741  4744  4746     9 
 4742  4741  4744  4747     9 
 4743  4741  4744  4745     9 
 4743  4741  4744  4746     9 
 4743  4741  4744  4747     9 
 4741  4744  4747  4748     9 
 4741  4744  4747  4749     9 
 4741  4744  4747  4750     9 
 4745  4744  4747  4748     9 
 4745  4744  4747  4749     9 
 4745  4744  4747  4750     9 
 4746  4744  4747  4748     9 
 4746  4744  4747  4749     9 
 4746  4744  4747  4750     9 
 4744  4747  4750  4751     9 
 4744  4747  4750  4752     9 
 4744  4747  4750  4753     9 
 4748  4747  4750  4751     9 
 4748  4747  4750  4752     9 
 4748  4747  4750  4753     9 
 4749  4747  4750  4751     9 
 4749  4747  4750  4752     9 
 4749  4747  4750  4753     9 
 4747  4750  4753  4754     9 
 4747  4750  4753  4755     9 
 4751  4750  4753  4754     9 
 4751  4750  4753  4755     9 
 4752  4750  4753  4754     9 
 4752  4750  4753  4755     9 
 4750  4753  4755  4756     9 
 4750  4753  4755  4757     9 
 4754  4753  4755  4756     9 
 4754  4753  4755  4757     9 
 4753  4755  4757  4758     9 
 4753  4755  4757  4759     9 
 4753  4755  4757  4760     9 
 4756  4755  4757  4758     9 
 4756  4755  4757  4759     9 
 4756  4755  4757  4760     9 
 4755  4757  4760  4761     9 
 4755  4757  4760  4762     9 
 4755  4757  4760  4763     9 
 4758  4757  4760  4761     9 
 4758  4757  4760  4762     9 
 4758  4757  4760  4763     9 
 4759  4757  4760  4761     9 
 4759  4757  4760  4762     9 
 4759  4757  4760  4763     9 
 4757  4760  4763  4764     9 
 4757  4760  4763  4765     9 
 4757  4760  4763  4766     9 
 4761  4760  4763  4764     9 
 4761  4760  4763  4765     9 
 4761  4760  4763  4766     9 
 4762  4760  4763  4764     9 
 4762  4760  4763  4765     9 
 4762  4760  4763  4766     9 
 4760  4763  4766  4767     9 
 4760  4763  4766  4768     9 
 4760  4763  4766  4769     9 
 4764  4763  4766  4767     9 
 4764  4763  4766  4768     9 
 4764  4763  4766  4769     9 
 4765  4763  4766  4767     9 
 4765  4763  4766  4768     9 
 4765  4763  4766  4769     9 
 4763  4766  4769  4770     9 
 4763  4766  4769  4771     9 
 4763  4766  4769  4772     9 
 4767  4766  4769  4770     9 
 4767  4766  4769  4771     9 
 4767  4766  4769  4772     9 
 4768  4766  4769  4770     9 
 4768  4766  4769  4771     9 
 4768  4766  4769  4772     9 
 4766  4769  4772  4773     9 
 4766  4769  4772  4774     9 
 4766  4769  4772  4775     9 
 4770  4769  4772  4773     9 
 4770  4769  4772  4774     9 
 4770  4769  4772  4775     9 
 4771  4769  4772  4773     9 
 4771  4769  4772  4774     9 
 4771  4769  4772  4775     9 
 4769  4772  4775  4776     9 
 4769  4772  4775  4777     9 
 4769  4772  4775  4778     9 
 4773  4772  4775  4776     9 
 4773  4772  4775  4777     9 
 4773  4772  4775  4778     9 
 4774  4772  4775  4776     9 
 4774  4772  4775  4777     9 
 4774  4772  4775  4778     9 
 4772  4775  4778  4779     9 
 4772  4775  4778  4780     9 
 4772  4775  4778  4781     9 
 4776  4775  4778  4779     9 
 4776  4775  4778  4780     9 
 4776  4775  4778  4781     9 
 4777  4775  4778  4779     9 
 4777  4775  4778  4780     9 
 4777  4775  4778  4781     9 
 4732  4782  4785  4786     9 
 4732  4782  4785  4787     9 
 4732  4782  4785  4788     9 
 4783  4782  4785  4786     9 
 4783  4782  4785  4787     9 
 4783  4782  4785  4788     9 
 4784  4782  4785  4786     9 
 4784  4782  4785  4787     9 
 4784  4782  4785  4788     9 
 4782  4785  4788  4789     9 
 4782  4785  4788  4790     9 
 4782  4785  4788  4791     9 
 4786  4785  4788  4789     9 
 4786  4785  4788  4790     9 
 4786  4785  4788  4791     9 
 4787  4785  4788  4789     9 
 4787  4785  4788  4790     9 
 4787  4785  4788  4791     9 
 4785  4788  4791  4792     9 
 4785  4788  4791  4793     9 
 4785  4788  4791  4794     9 
 4789  4788  4791  4792     9 
 4789  4788  4791  4793     9 
 4789  4788  4791  4794     9 
 4790  4788  4791  4792     9 
 4790  4788  4791  4793     9 
 4790  4788  4791  4794     9 
 4788  4791  4794  4795     9 
 4788  4791  4794  4796     9 
 4788  4791  4794  4797     9 
 4792  4791  4794  4795     9 
 4792  4791  4794  4796     9 
 4792  4791  4794  4797     9 
 4793  4791  4794  4795     9 
 4793  4791  4794  4796     9 
 4793  4791  4794  4797     9 
 4791  4794  4797  4798     9 
 4791  4794  4797  4799     9 
 4791  4794  4797  4800     9 
 4795  4794  4797  4798     9 
 4795  4794  4797  4799     9 
 4795  4794  4797  4800     9 
 4796  4794  4797  4798     9 
 4796  4794  4797  4799     9 
 4796  4794  4797  4800     9 
 4794  4797  4800  4801     9 
 4794  4797  4800  4802     9 
 4794  4797  4800  4803     9 
 4798  4797  4800  4801     9 
 4798  4797  4800  4802     9 
 4798  4797  4800  4803     9 
 4799  4797  4800  4801     9 
 4799  4797  4800  4802     9 
 4799  4797  4800  4803     9 
 4797  4800  4803  4804     9 
 4797  4800  4803  4805     9 
 4797  4800  4803  4806     9 
 4801  4800  4803  4804     9 
 4801  4800  4803  4805     9 
 4801  4800  4803  4806     9 
 4802  4800  4803  4804     9 
 4802  4800  4803  4805     9 
 4802  4800  4803  4806     9 
 4800  4803  4806  4807     9 
 4800  4803  4806  4808     9 
 4800  4803  4806  4809     9 
 4804  4803  4806  4807     9 
 4804  4803  4806  4808     9 
 4804  4803  4806  4809     9 
 4805  4803  4806  4807     9 
 4805  4803  4806  4808     9 
 4805  4803  4806  4809     9 
 4803  4806  4809  4810     9 
 4803  4806  4809  4811     9 
 4803  4806  4809  4812     9 
 4807  4806  4809  4810     9 
 4807  4806  4809  4811     9 
 4807  4806  4809  4812     9 
 4808  4806  4809  4810     9 
 4808  4806  4809  4811     9 
 4808  4806  4809  4812     9 
 4806  4809  4812  4813     9 
 4806  4809  4812  4814     9 
 4806  4809  4812  4815     9 
 4810  4809  4812  4813     9 
 4810  4809  4812  4814     9 
 4810  4809  4812  4815     9 
 4811  4809  4812  4813     9 
 4811  4809  4812  4814     9 
 4811  4809  4812  4815     9 
 4809  4812  4815  4816     9 
 4809  4812  4815  4817     9 
 4809  4812  4815  4818     9 
 4813  4812  4815  4816     9 
 4813  4812  4815  4817     9 
 4813  4812  4815  4818     9 
 4814  4812  4815  4816     9 
 4814  4812  4815  4817     9 
 4814  4812  4815  4818     9 
 4812  4815  4818  4819     9 
 4812  4815  4818  4820     9 
 4812  4815  4818  4821     9 
 4816  4815  4818  4819     9 
 4816  4815  4818  4820     9 
 4816  4815  4818  4821     9 
 4817  4815  4818  4819     9 
 4817  4815  4818  4820     9 
 4817  4815  4818  4821     9 
 4815  4818  4821  4822     9 
 4815  4818  4821  4823     9 
 4815  4818  4821  4824     9 
 4819  4818  4821  4822     9 
 4819  4818  4821  4823     9 
 4819  4818  4821  4824     9 
 4820  4818  4821  4822     9 
 4820  4818  4821  4823     9 
 4820  4818  4821  4824     9 
 4829  4825  4826  4827     9 
 4829  4825  4826  4828     9 
 4829  4825  4826  4841     9 
 4833  4825  4826  4827     9 
 4833  4825  4826  4828     9 
 4833  4825  4826  4841     9 
 4837  4825  4826  4827     9 
 4837  4825  4826  4828     9 
 4837  4825  4826  4841     9 
 4826  4825  4829  4830     9 
 4826  4825  4829  4831     9 
 4826  4825  4829  4832     9 
 4833  4825  4829  4830     9 
 4833  4825  4829  4831     9 
 4833  4825  4829  4832     9 
 4837  4825  4829  4830     9 
 4837  4825  4829  4831     9 
 4837  4825  4829  4832     9 
 4826  4825  4833  4834     9 
 4826  4825  4833  4835     9 
 4826  4825  4833  4836     9 
 4829  4825  4833  4834     9 
 4829  4825  4833  4835     9 
 4829  4825  4833  4836     9 
 4837  4825  4833  4834     9 
 4837  4825  4833  4835     9 
 4837  4825  4833  4836     9 
 4826  4825  4837  4838     9 
 4826  4825  4837  4839     9 
 4826  4825  4837  4840     9 
 4829  4825  4837  4838     9 
 4829  4825  4837  4839     9 
 4829  4825  4837  4840     9 
 4833  4825  4837  4838     9 
 4833  4825  4837  4839     9 
 4833  4825  4837  4840     9 
 4825  4826  4841  4842     9 
 4825  4826  4841  4843     9 
 4825  4826  4841  4847     9 
 4827  4826  4841  4842     9 
 4827  4826  4841  4843     9 
 4827  4826  4841  4847     9 
 4828  4826  4841  4842     9 
 4828  4826  4841  4843     9 
 4828  4826  4841  4847     9 
 4826  4841  4847  4844     9 
 4842  4841  4847  4844     9 
 4843  4841  4847  4844     9 
 4845  4844  4847  4841     9 
 4846  4844  4847  4841     9 
 4848  4844  4847  4841     9 
 4845  4844  4848  4849     9 
 4846  4844  4848  4849     9 
 4847  4844  4848  4849     9 
 4844  4848  4849  4850     9 
 4844  4848  4849  4851     9 
 4844  4848  4849  4852     9 
 4848  4849  4852  4853     9 
 4848  4849  4852  4854     9 
 4848  4849  4852  4860     9 
 4850  4849  4852  4853     9 
 4850  4849  4852  4854     9 
 4850  4849  4852  4860     9 
 4851  4849  4852  4853     9 
 4851  4849  4852  4854     9 
 4851  4849  4852  4860     9 
 4849  4852  4854  4855     9 
 4853  4852  4854  4855     9 
 4860  4852  4854  4855     9 
 4849  4852  4860  4861     9 
 4849  4852  4860  4862     9 
 4849  4852  4860  4863     9 
 4853  4852  4860  4861     9 
 4853  4852  4860  4862     9 
 4853  4852  4860  4863     9 
 4854  4852  4860  4861     9 
 4854  4852  4860  4862     9 
 4854  4852  4860  4863     9 
 4852  4854  4855  4856     9 
 4852  4854  4855  4857     9 
 4854  4855  4857  4858     9 
 4854  4855  4857  4859     9 
 4854  4855  4857  4869     9 
 4856  4855  4857  4858     9 
 4856  4855  4857  4859     9 
 4856  4855  4857  4869     9 
 4855  4857  4869  4870     9 
 4855  4857  4869  4871     9 
 4855  4857  4869  4872     9 
 4858  4857  4869  4870     9 
 4858  4857  4869  4871     9 
 4858  4857  4869  4872     9 
 4859  4857  4869  4870     9 
 4859  4857  4869  4871     9 
 4859  4857  4869  4872     9 
 4852  4860  4863  4864     9 
 4861  4860  4863  4864     9 
 4862  4860  4863  4864     9 
 4860  4863  4864  4865     9 
 4860  4863  4864  4866     9 
 4863  4864  4866  4867     9 
 4863  4864  4866  4868     9 
 4863  4864  4866  4916     9 
 4865  4864  4866  4867     9 
 4865  4864  4866  4868     9 
 4865  4864  4866  4916     9 
 4864  4866  4916  4917     9 
 4864  4866  4916  4918     9 
 4864  4866  4916  4919     9 
 4867  4866  4916  4917     9 
 4867  4866  4916  4918     9 
 4867  4866  4916  4919     9 
 4868  4866  4916  4917     9 
 4868  4866  4916  4918     9 
 4868  4866  4916  4919     9 
 4857  4869  4872  4873     9 
 4857  4869  4872  4874     9 
 4857  4869  4872  4875     9 
 4870  4869  4872  4873     9 
 4870  4869  4872  4874     9 
 4870  4869  4872  4875     9 
 4871  4869  4872  4873     9 
 4871  4869  4872  4874     9 
 4871  4869  4872  4875     9 
 4869  4872  4875  4876     9 
 4869  4872  4875  4877     9 
 4869  4872  4875  4878     9 
 4873  4872  4875  4876     9 
 4873  4872  4875  4877     9 
 4873  4872  4875  4878     9 
 4874  4872  4875  4876     9 
 4874  4872  4875  4877     9 
 4874  4872  4875  4878     9 
 4872  4875  4878  4879     9 
 4872  4875  4878  4880     9 
 4872  4875  4878  4881     9 
 4876  4875  4878  4879     9 
 4876  4875  4878  4880     9 
 4876  4875  4878  4881     9 
 4877  4875  4878  4879     9 
 4877  4875  4878  4880     9 
 4877  4875  4878  4881     9 
 4875  4878  4881  4882     9 
 4875  4878  4881  4883     9 
 4875  4878  4881  4884     9 
 4879  4878  4881  4882     9 
 4879  4878  4881  4883     9 
 4879  4878  4881  4884     9 
 4880  4878  4881  4882     9 
 4880  4878  4881  4883     9 
 4880  4878  4881  4884     9 
 4878  4881  4884  4885     9 
 4878  4881  4884  4886     9 
 4878  4881  4884  4887     9 
 4882  4881  4884  4885     9 
 4882  4881  4884  4886     9 
 4882  4881  4884  4887     9 
 4883  4881  4884  4885     9 
 4883  4881  4884  4886     9 
 4883  4881  4884  4887     9 
 4881  4884  4887  4888     9 
 4881  4884  4887  4889     9 
 4885  4884  4887  4888     9 
 4885  4884  4887  4889     9 
 4886  4884  4887  4888     9 
 4886  4884  4887  4889     9 
 4884  4887  4889  4890     9 
 4884  4887  4889  4891     9 
 4888  4887  4889  4890     9 
 4888  4887  4889  4891     9 
 4887  4889  4891  4892     9 
 4887  4889  4891  4893     9 
 4887  4889  4891  4894     9 
 4890  4889  4891  4892     9 
 4890  4889  4891  4893     9 
 4890  4889  4891  4894     9 
 4889  4891  4894  4895     9 
 4889  4891  4894  4896     9 
 4889  4891  4894  4897     9 
 4892  4891  4894  4895     9 
 4892  4891  4894  4896     9 
 4892  4891  4894  4897     9 
 4893  4891  4894  4895     9 
 4893  4891  4894  4896     9 
 4893  4891  4894  4897     9 
 4891  4894  4897  4898     9 
 4891  4894  4897  4899     9 
 4891  4894  4897  4900     9 
 4895  4894  4897  4898     9 
 4895  4894  4897  4899     9 
 4895  4894  4897  4900     9 
 4896  4894  4897  4898     9 
 4896  4894  4897  4899     9 
 4896  4894  4897  4900     9 
 4894  4897  4900  4901     9 
 4894  4897  4900  4902     9 
 4894  4897  4900  4903     9 
 4898  4897  4900  4901     9 
 4898  4897  4900  4902     9 
 4898  4897  4900  4903     9 
 4899  4897  4900  4901     9 
 4899  4897  4900  4902     9 
 4899  4897  4900  4903     9 
 4897  4900  4903  4904     9 
 4897  4900  4903  4905     9 
 4897  4900  4903  4906     9 
 4901  4900  4903  4904     9 
 4901  4900  4903  4905     9 
 4901  4900  4903  4906     9 
 4902  4900  4903  4904     9 
 4902  4900  4903  4905     9 
 4902  4900  4903  4906     9 
 4900  4903  4906  4907     9 
 4900  4903  4906  4908     9 
 4900  4903  4906  4909     9 
 4904  4903  4906  4907     9 
 4904  4903  4906  4908     9 
 4904  4903  4906  4909     9 
 4905  4903  4906  4907     9 
 4905  4903  4906  4908     9 
 4905  4903  4906  4909     9 
 4903  4906  4909  4910     9 
 4903  4906  4909  4911     9 
 4903  4906  4909  4912     9 
 4907  4906  4909  4910     9 
 4907  4906  4909  4911     9 
 4907  4906  4909  4912     9 
 4908  4906  4909  4910     9 
 4908  4906  4909  4911     9 
 4908  4906  4909  4912     9 
 4906  4909  4912  4913     9 
 4906  4909  4912  4914     9 
 4906  4909  4912  4915     9 
 4910  4909  4912  4913     9 
 4910  4909  4912  4914     9 
 4910  4909  4912  4915     9 
 4911  4909  4912  4913     9 
 4911  4909  4912  4914     9 
 4911  4909  4912  4915     9 
 4866  4916  4919  4920     9 
 4866  4916  4919  4921     9 
 4866  4916  4919  4922     9 
 4917  4916  4919  4920     9 
 4917  4916  4919  4921     9 
 4917  4916  4919  4922     9 
 4918  4916  4919  4920     9 
 4918  4916  4919  4921     9 
 4918  4916  4919  4922     9 
 4916  4919  4922  4923     9 
 4916  4919  4922  4924     9 
 4916  4919  4922  4925     9 
 4920  4919  4922  4923     9 
 4920  4919  4922  4924     9 
 4920  4919  4922  4925     9 
 4921  4919  4922  4923     9 
 4921  4919  4922  4924     9 
 4921  4919  4922  4925     9 
 4919  4922  4925  4926     9 
 4919  4922  4925  4927     9 
 4919  4922  4925  4928     9 
 4923  4922  4925  4926     9 
 4923  4922  4925  4927     9 
 4923  4922  4925  4928     9 
 4924  4922  4925  4926     9 
 4924  4922  4925  4927     9 
 4924  4922  4925  4928     9 
 4922  4925  4928  4929     9 
 4922  4925  4928  4930     9 
 4922  4925  4928  4931     9 
 4926  4925  4928  4929     9 
 4926  4925  4928  4930     9 
 4926  4925  4928  4931     9 
 4927  4925  4928  4929     9 
 4927  4925  4928  4930     9 
 4927  4925  4928  4931     9 
 4925  4928  4931  4932     9 
 4925  4928  4931  4933     9 
 4925  4928  4931  4934     9 
 4929  4928  4931  4932     9 
 4929  4928  4931  4933     9 
 4929  4928  4931  4934     9 
 4930  4928  4931  4932     9 
 4930  4928  4931  4933     9 
 4930  4928  4931  4934     9 
 4928  4931  4934  4935     9 
 4928  4931  4934  4936     9 
 4928  4931  4934  4937     9 
 4932  4931  4934  4935     9 
 4932  4931  4934  4936     9 
 4932  4931  4934  4937     9 
 4933  4931  4934  4935     9 
 4933  4931  4934  4936     9 
 4933  4931  4934  4937     9 
 4931  4934  4937  4938     9 
 4931  4934  4937  4939     9 
 4931  4934  4937  4940     9 
 4935  4934  4937  4938     9 
 4935  4934  4937  4939     9 
 4935  4934  4937  4940     9 
 4936  4934  4937  4938     9 
 4936  4934  4937  4939     9 
 4936  4934  4937  4940     9 
 4934  4937  4940  4941     9 
 4934  4937  4940  4942     9 
 4934  4937  4940  4943     9 
 4938  4937  4940  4941     9 
 4938  4937  4940  4942     9 
 4938  4937  4940  4943     9 
 4939  4937  4940  4941     9 
 4939  4937  4940  4942     9 
 4939  4937  4940  4943     9 
 4937  4940  4943  4944     9 
 4937  4940  4943  4945     9 
 4937  4940  4943  4946     9 
 4941  4940  4943  4944     9 
 4941  4940  4943  4945     9 
 4941  4940  4943  4946     9 
 4942  4940  4943  4944     9 
 4942  4940  4943  4945     9 
 4942  4940  4943  4946     9 
 4940  4943  4946  4947     9 
 4940  4943  4946  4948     9 
 4940  4943  4946  4949     9 
 4944  4943  4946  4947     9 
 4944  4943  4946  4948     9 
 4944  4943  4946  4949     9 
 4945  4943  4946  4947     9 
 4945  4943  4946  4948     9 
 4945  4943  4946  4949     9 
 4943  4946  4949  4950     9 
 4943  4946  4949  4951     9 
 4943  4946  4949  4952     9 
 4947  4946  4949  4950     9 
 4947  4946  4949  4951     9 
 4947  4946  4949  4952     9 
 4948  4946  4949  4950     9 
 4948  4946  4949  4951     9 
 4948  4946  4949  4952     9 
 4946  4949  4952  4953     9 
 4946  4949  4952  4954     9 
 4946  4949  4952  4955     9 
 4950  4949  4952  4953     9 
 4950  4949  4952  4954     9 
 4950  4949  4952  4955     9 
 4951  4949  4952  4953     9 
 4951  4949  4952  4954     9 
 4951  4949  4952  4955     9 
 4949  4952  4955  4956     9 
 4949  4952  4955  4957     9 
 4949  4952  4955  4958     9 
 4953  4952  4955  4956     9 
 4953  4952  4955  4957     9 
 4953  4952  4955  4958     9 
 4954  4952  4955  4956     9 
 4954  4952  4955  4957     9 
 4954  4952  4955  4958     9 
 4963  4959  4960  4961     9 
 4963  4959  4960  4962     9 
 4963  4959  4960  4975     9 
 4967  4959  4960  4961     9 
 4967  4959  4960  4962     9 
 4967  4959  4960  4975     9 
 4971  4959  4960  4961     9 
 4971  4959  4960  4962     9 
 4971  4959  4960  4975     9 
 4960  4959  4963  4964     9 
 4960  4959  4963  4965     9 
 4960  4959  4963  4966     9 
 4967  4959  4963  4964     9 
 4967  4959  4963  4965     9 
 4967  4959  4963  4966     9 
 4971  4959  4963  4964     9 
 4971  4959  4963  4965     9 
 4971  4959  4963  4966     9 
 4960  4959  4967  4968     9 
 4960  4959  4967  4969     9 
 4960  4959  4967  4970     9 
 4963  4959  4967  4968     9 
 4963  4959  4967  4969     9 
 4963  4959  4967  4970     9 
 4971  4959  4967  4968     9 
 4971  4959  4967  4969     9 
 4971  4959  4967  4970     9 
 4960  4959  4971  4972     9 
 4960  4959  4971  4973     9 
 4960  4959  4971  4974     9 
 4963  4959  4971  4972     9 
 4963  4959  4971  4973     9 
 4963  4959  4971  4974     9 
 4967  4959  4971  4972     9 
 4967  4959  4971  4973     9 
 4967  4959  4971  4974     9 
 4959  4960  4975  4976     9 
 4959  4960  4975  4977     9 
 4959  4960  4975  4981     9 
 4961  4960  4975  4976     9 
 4961  4960  4975  4977     9 
 4961  4960  4975  4981     9 
 4962  4960  4975  4976     9 
 4962  4960  4975  4977     9 
 4962  4960  4975  4981     9 
 4960  4975  4981  4978     9 
 4976  4975  4981  4978     9 
 4977  4975  4981  4978     9 
 4979  4978  4981  4975     9 
 4980  4978  4981  4975     9 
 4982  4978  4981  4975     9 
 4979  4978  4982  4983     9 
 4980  4978  4982  4983     9 
 4981  4978  4982  4983     9 
 4978  4982  4983  4984     9 
 4978  4982  4983  4985     9 
 4978  4982  4983  4986     9 
 4982  4983  4986  4987     9 
 4982  4983  4986  4988     9 
 4982  4983  4986  4994     9 
 4984  4983  4986  4987     9 
 4984  4983  4986  4988     9 
 4984  4983  4986  4994     9 
 4985  4983  4986  4987     9 
 4985  4983  4986  4988     9 
 4985  4983  4986  4994     9 
 4983  4986  4988  4989     9 
 4987  4986  4988  4989     9 
 4994  4986  4988  4989     9 
 4983  4986  4994  4995     9 
 4983  4986  4994  4996     9 
 4983  4986  4994  4997     9 
 4987  4986  4994  4995     9 
 4987  4986  4994  4996     9 
 4987  4986  4994  4997     9 
 4988  4986  4994  4995     9 
 4988  4986  4994  4996     9 
 4988  4986  4994  4997     9 
 4986  4988  4989  4990     9 
 4986  4988  4989  4991     9 
 4988  4989  4991  4992     9 
 4988  4989  4991  4993     9 
 4988  4989  4991  5003     9 
 4990  4989  4991  4992     9 
 4990  4989  4991  4993     9 
 4990  4989  4991  5003     9 
 4989  4991  5003  5004     9 
 4989  4991  5003  5005     9 
 4989  4991  5003  5006     9 
 4992  4991  5003  5004     9 
 4992  4991  5003  5005     9 
 4992  4991  5003  5006     9 
 4993  4991  5003  5004     9 
 4993  4991  5003  5005     9 
 4993  4991  5003  5006     9 
 4986  4994  4997  4998     9 
 4995  4994  4997  4998     9 
 4996  4994  4997  4998     9 
 4994  4997  4998  4999     9 
 4994  4997  4998  5000     9 
 4997  4998  5000  5001     9 
 4997  4998  5000  5002     9 
 4997  4998  5000  5050     9 
 4999  4998  5000  5001     9 
 4999  4998  5000  5002     9 
 4999  4998  5000  5050     9 
 4998  5000  5050  5051     9 
 4998  5000  5050  5052     9 
 4998  5000  5050  5053     9 
 5001  5000  5050  5051     9 
 5001  5000  5050  5052     9 
 5001  5000  5050  5053     9 
 5002  5000  5050  5051     9 
 5002  5000  5050  5052     9 
 5002  5000  5050  5053     9 
 4991  5003  5006  5007     9 
 4991  5003  5006  5008     9 
 4991  5003  5006  5009     9 
 5004  5003  5006  5007     9 
 5004  5003  5006  5008     9 
 5004  5003  5006  5009     9 
 5005  5003  5006  5007     9 
 5005  5003  5006  5008     9 
 5005  5003  5006  5009     9 
 5003  5006  5009  5010     9 
 5003  5006  5009  5011     9 
 5003  5006  5009  5012     9 
 5007  5006  5009  5010     9 
 5007  5006  5009  5011     9 
 5007  5006  5009  5012     9 
 5008  5006  5009  5010     9 
 5008  5006  5009  5011     9 
 5008  5006  5009  5012     9 
 5006  5009  5012  5013     9 
 5006  5009  5012  5014     9 
 5006  5009  5012  5015     9 
 5010  5009  5012  5013     9 
 5010  5009  5012  5014     9 
 5010  5009  5012  5015     9 
 5011  5009  5012  5013     9 
 5011  5009  5012  5014     9 
 5011  5009  5012  5015     9 
 5009  5012  5015  5016     9 
 5009  5012  5015  5017     9 
 5009  5012  5015  5018     9 
 5013  5012  5015  5016     9 
 5013  5012  5015  5017     9 
 5013  5012  5015  5018     9 
 5014  5012  5015  5016     9 
 5014  5012  5015  5017     9 
 5014  5012  5015  5018     9 
 5012  5015  5018  5019     9 
 5012  5015  5018  5020     9 
 5012  5015  5018  5021     9 
 5016  5015  5018  5019     9 
 5016  5015  5018  5020     9 
 5016  5015  5018  5021     9 
 5017  5015  5018  5019     9 
 5017  5015  5018  5020     9 
 5017  5015  5018  5021     9 
 5015  5018  5021  5022     9 
 5015  5018  5021  5023     9 
 5019  5018  5021  5022     9 
 5019  5018  5021  5023     9 
 5020  5018  5021  5022     9 
 5020  5018  5021  5023     9 
 5018  5021  5023  5024     9 
 5018  5021  5023  5025     9 
 5022  5021  5023  5024     9 
 5022  5021  5023  5025     9 
 5021  5023  5025  5026     9 
 5021  5023  5025  5027     9 
 5021  5023  5025  5028     9 
 5024  5023  5025  5026     9 
 5024  5023  5025  5027     9 
 5024  5023  5025  5028     9 
 5023  5025  5028  5029     9 
 5023  5025  5028  5030     9 
 5023  5025  5028  5031     9 
 5026  5025  5028  5029     9 
 5026  5025  5028  5030     9 
 5026  5025  5028  5031     9 
 5027  5025  5028  5029     9 
 5027  5025  5028  5030     9 
 5027  5025  5028  5031     9 
 5025  5028  5031  5032     9 
 5025  5028  5031  5033     9 
 5025  5028  5031  5034     9 
 5029  5028  5031  5032     9 
 5029  5028  5031  5033     9 
 5029  5028  5031  5034     9 
 5030  5028  5031  5032     9 
 5030  5028  5031  5033     9 
 5030  5028  5031  5034     9 
 5028  5031  5034  5035     9 
 5028  5031  5034  5036     9 
 5028  5031  5034  5037     9 
 5032  5031  5034  5035     9 
 5032  5031  5034  5036     9 
 5032  5031  5034  5037     9 
 5033  5031  5034  5035     9 
 5033  5031  5034  5036     9 
 5033  5031  5034  5037     9 
 5031  5034  5037  5038     9 
 5031  5034  5037  5039     9 
 5031  5034  5037  5040     9 
 5035  5034  5037  5038     9 
 5035  5034  5037  5039     9 
 5035  5034  5037  5040     9 
 5036  5034  5037  5038     9 
 5036  5034  5037  5039     9 
 5036  5034  5037  5040     9 
 5034  5037  5040  5041     9 
 5034  5037  5040  5042     9 
 5034  5037  5040  5043     9 
 5038  5037  5040  5041     9 
 5038  5037  5040  5042     9 
 5038  5037  5040  5043     9 
 5039  5037  5040  5041     9 
 5039  5037  5040  5042     9 
 5039  5037  5040  5043     9 
 5037  5040  5043  5044     9 
 5037  5040  5043  5045     9 
 5037  5040  5043  5046     9 
 5041  5040  5043  5044     9 
 5041  5040  5043  5045     9 
 5041  5040  5043  5046     9 
 5042  5040  5043  5044     9 
 5042  5040  5043  5045     9 
 5042  5040  5043  5046     9 
 5040  5043  5046  5047     9 
 5040  5043  5046  5048     9 
 5040  5043  5046  5049     9 
 5044  5043  5046  5047     9 
 5044  5043  5046  5048     9 
 5044  5043  5046  5049     9 
 5045  5043  5046  5047     9 
 5045  5043  5046  5048     9 
 5045  5043  5046  5049     9 
 5000  5050  5053  5054     9 
 5000  5050  5053  5055     9 
 5000  5050  5053  5056     9 
 5051  5050  5053  5054     9 
 5051  5050  5053  5055     9 
 5051  5050  5053  5056     9 
 5052  5050  5053  5054     9 
 5052  5050  5053  5055     9 
 5052  5050  5053  5056     9 
 5050  5053  5056  5057     9 
 5050  5053  5056  5058     9 
 5050  5053  5056  5059     9 
 5054  5053  5056  5057     9 
 5054  5053  5056  5058     9 
 5054  5053  5056  5059     9 
 5055  5053  5056  5057     9 
 5055  5053  5056  5058     9 
 5055  5053  5056  5059     9 
 5053  5056  5059  5060     9 
 5053  5056  5059  5061     9 
 5053  5056  5059  5062     9 
 5057  5056  5059  5060     9 
 5057  5056  5059  5061     9 
 5057  5056  5059  5062     9 
 5058  5056  5059  5060     9 
 5058  5056  5059  5061     9 
 5058  5056  5059  5062     9 
 5056  5059  5062  5063     9 
 5056  5059  5062  5064     9 
 5056  5059  5062  5065     9 
 5060  5059  5062  5063     9 
 5060  5059  5062  5064     9 
 5060  5059  5062  5065     9 
 5061  5059  5062  5063     9 
 5061  5059  5062  5064     9 
 5061  5059  5062  5065     9 
 5059  5062  5065  5066     9 
 5059  5062  5065  5067     9 
 5059  5062  5065  5068     9 
 5063  5062  5065  5066     9 
 5063  5062  5065  5067     9 
 5063  5062  5065  5068     9 
 5064  5062  5065  5066     9 
 5064  5062  5065  5067     9 
 5064  5062  5065  5068     9 
 5062  5065  5068  5069     9 
 5062  5065  5068  5070     9 
 5062  5065  5068  5071     9 
 5066  5065  5068  5069     9 
 5066  5065  5068  5070     9 
 5066  5065  5068  5071     9 
 5067  5065  5068  5069     9 
 5067  5065  5068  5070     9 
 5067  5065  5068  5071     9 
 5065  5068  5071  5072     9 
 5065  5068  5071  5073     9 
 5065  5068  5071  5074     9 
 5069  5068  5071  5072     9 
 5069  5068  5071  5073     9 
 5069  5068  5071  5074     9 
 5070  5068  5071  5072     9 
 5070  5068  5071  5073     9 
 5070  5068  5071  5074     9 
 5068  5071  5074  5075     9 
 5068  5071  5074  5076     9 
 5068  5071  5074  5077     9 
 5072  5071  5074  5075     9 
 5072  5071  5074  5076     9 
 5072  5071  5074  5077     9 
 5073  5071  5074  5075     9 
 5073  5071  5074  5076     9 
 5073  5071  5074  5077     9 
 5071  5074  5077  5078     9 
 5071  5074  5077  5079     9 
 5071  5074  5077  5080     9 
 5075  5074  5077  5078     9 
 5075  5074  5077  5079     9 
 5075  5074  5077  5080     9 
 5076  5074  5077  5078     9 
 5076  5074  5077  5079     9 
 5076  5074  5077  5080     9 
 5074  5077  5080  5081     9 
 5074  5077  5080  5082     9 
 5074  5077  5080  5083     9 
 5078  5077  5080  5081     9 
 5078  5077  5080  5082     9 
 5078  5077  5080  5083     9 
 5079  5077  5080  5081     9 
 5079  5077  5080  5082     9 
 5079  5077  5080  5083     9 
 5077  5080  5083  5084     9 
 5077  5080  5083  5085     9 
 5077  5080  5083  5086     9 
 5081  5080  5083  5084     9 
 5081  5080  5083  5085     9 
 5081  5080  5083  5086     9 
 5082  5080  5083  5084     9 
 5082  5080  5083  5085     9 
 5082  5080  5083  5086     9 
 5080  5083  5086  5087     9 
 5080  5083  5086  5088     9 
 5080  5083  5086  5089     9 
 5084  5083  5086  5087     9 
 5084  5083  5086  5088     9 
 5084  5083  5086  5089     9 
 5085  5083  5086  5087     9 
 5085  5083  5086  5088     9 
 5085  5083  5086  5089     9 
 5083  5086  5089  5090     9 
 5083  5086  5089  5091     9 
 5083  5086  5089  5092     9 
 5087  5086  5089  5090     9 
 5087  5086  5089  5091     9 
 5087  5086  5089  5092     9 
 5088  5086  5089  5090     9 
 5088  5086  5089  5091     9 
 5088  5086  5089  5092     9 
 5097  5093  5094  5095     9 
 5097  5093  5094  5096     9 
 5097  5093  5094  5109     9 
 5101  5093  5094  5095     9 
 5101  5093  5094  5096     9 
 5101  5093  5094  5109     9 
 5105  5093  5094  5095     9 
 5105  5093  5094  5096     9 
 5105  5093  5094  5109     9 
 5094  5093  5097  5098     9 
 5094  5093  5097  5099     9 
 5094  5093  5097  5100     9 
 5101  5093  5097  5098     9 
 5101  5093  5097  5099     9 
 5101  5093  5097  5100     9 
 5105  5093  5097  5098     9 
 5105  5093  5097  5099     9 
 5105  5093  5097  5100     9 
 5094  5093  5101  5102     9 
 5094  5093  5101  5103     9 
 5094  5093  5101  5104     9 
 5097  5093  5101  5102     9 
 5097  5093  5101  5103     9 
 5097  5093  5101  5104     9 
 5105  5093  5101  5102     9 
 5105  5093  5101  5103     9 
 5105  5093  5101  5104     9 
 5094  5093  5105  5106     9 
 5094  5093  5105  5107     9 
 5094  5093  5105  5108     9 
 5097  5093  5105  5106     9 
 5097  5093  5105  5107     9 
 5097  5093  5105  5108     9 
 5101  5093  5105  5106     9 
 5101  5093  5105  5107     9 
 5101  5093  5105  5108     9 
 5093  5094  5109  5110     9 
 5093  5094  5109  5111     9 
 5093  5094  5109  5115     9 
 5095  5094  5109  5110     9 
 5095  5094  5109  5111     9 
 5095  5094  5109  5115     9 
 5096  5094  5109  5110     9 
 5096  5094  5109  5111     9 
 5096  5094  5109  5115     9 
 5094  5109  5115  5112     9 
 5110  5109  5115  5112     9 
 5111  5109  5115  5112     9 
 5113  5112  5115  5109     9 
 5114  5112  5115  5109     9 
 5116  5112  5115  5109     9 
 5113  5112  5116  5117     9 
 5114  5112  5116  5117     9 
 5115  5112  5116  5117     9 
 5112  5116  5117  5118     9 
 5112  5116  5117  5119     9 
 5112  5116  5117  5120     9 
 5116  5117  5120  5121     9 
 5116  5117  5120  5122     9 
 5116  5117  5120  5128     9 
 5118  5117  5120  5121     9 
 5118  5117  5120  5122     9 
 5118  5117  5120  5128     9 
 5119  5117  5120  5121     9 
 5119  5117  5120  5122     9 
 5119  5117  5120  5128     9 
 5117  5120  5122  5123     9 
 5121  5120  5122  5123     9 
 5128  5120  5122  5123     9 
 5117  5120  5128  5129     9 
 5117  5120  5128  5130     9 
 5117  5120  5128  5131     9 
 5121  5120  5128  5129     9 
 5121  5120  5128  5130     9 
 5121  5120  5128  5131     9 
 5122  5120  5128  5129     9 
 5122  5120  5128  5130     9 
 5122  5120  5128  5131     9 
 5120  5122  5123  5124     9 
 5120  5122  5123  5125     9 
 5122  5123  5125  5126     9 
 5122  5123  5125  5127     9 
 5122  5123  5125  5137     9 
 5124  5123  5125  5126     9 
 5124  5123  5125  5127     9 
 5124  5123  5125  5137     9 
 5123  5125  5137  5138     9 
 5123  5125  5137  5139     9 
 5123  5125  5137  5140     9 
 5126  5125  5137  5138     9 
 5126  5125  5137  5139     9 
 5126  5125  5137  5140     9 
 5127  5125  5137  5138     9 
 5127  5125  5137  5139     9 
 5127  5125  5137  5140     9 
 5120  5128  5131  5132     9 
 5129  5128  5131  5132     9 
 5130  5128  5131  5132     9 
 5128  5131  5132  5133     9 
 5128  5131  5132  5134     9 
 5131  5132  5134  5135     9 
 5131  5132  5134  5136     9 
 5131  5132  5134  5184     9 
 5133  5132  5134  5135     9 
 5133  5132  5134  5136     9 
 5133  5132  5134  5184     9 
 5132  5134  5184  5185     9 
 5132  5134  5184  5186     9 
 5132  5134  5184  5187     9 
 5135  5134  5184  5185     9 
 5135  5134  5184  5186     9 
 5135  5134  5184  5187     9 
 5136  5134  5184  5185     9 
 5136  5134  5184  5186     9 
 5136  5134  5184  5187     9 
 5125  5137  5140  5141     9 
 5125  5137  5140  5142     9 
 5125  5137  5140  5143     9 
 5138  5137  5140  5141     9 
 5138  5137  5140  5142     9 
 5138  5137  5140  5143     9 
 5139  5137  5140  5141     9 
 5139  5137  5140  5142     9 
 5139  5137  5140  5143     9 
 5137  5140  5143  5144     9 
 5137  5140  5143  5145     9 
 5137  5140  5143  5146     9 
 5141  5140  5143  5144     9 
 5141  5140  5143  5145     9 
 5141  5140  5143  5146     9 
 5142  5140  5143  5144     9 
 5142  5140  5143  5145     9 
 5142  5140  5143  5146     9 
 5140  5143  5146  5147     9 
 5140  5143  5146  5148     9 
 5140  5143  5146  5149     9 
 5144  5143  5146  5147     9 
 5144  5143  5146  5148     9 
 5144  5143  5146  5149     9 
 5145  5143  5146  5147     9 
 5145  5143  5146  5148     9 
 5145  5143  5146  5149     9 
 5143  5146  5149  5150     9 
 5143  5146  5149  5151     9 
 5143  5146  5149  5152     9 
 5147  5146  5149  5150     9 
 5147  5146  5149  5151     9 
 5147  5146  5149  5152     9 
 5148  5146  5149  5150     9 
 5148  5146  5149  5151     9 
 5148  5146  5149  5152     9 
 5146  5149  5152  5153     9 
 5146  5149  5152  5154     9 
 5146  5149  5152  5155     9 
 5150  5149  5152  5153     9 
 5150  5149  5152  5154     9 
 5150  5149  5152  5155     9 
 5151  5149  5152  5153     9 
 5151  5149  5152  5154     9 
 5151  5149  5152  5155     9 
 5149  5152  5155  5156     9 
 5149  5152  5155  5157     9 
 5153  5152  5155  5156     9 
 5153  5152  5155  5157     9 
 5154  5152  5155  5156     9 
 5154  5152  5155  5157     9 
 5152  5155  5157  5158     9 
 5152  5155  5157  5159     9 
 5156  5155  5157  5158     9 
 5156  5155  5157  5159     9 
 5155  5157  5159  5160     9 
 5155  5157  5159  5161     9 
 5155  5157  5159  5162     9 
 5158  5157  5159  5160     9 
 5158  5157  5159  5161     9 
 5158  5157  5159  5162     9 
 5157  5159  5162  5163     9 
 5157  5159  5162  5164     9 
 5157  5159  5162  5165     9 
 5160  5159  5162  5163     9 
 5160  5159  5162  5164     9 
 5160  5159  5162  5165     9 
 5161  5159  5162  5163     9 
 5161  5159  5162  5164     9 
 5161  5159  5162  5165     9 
 5159  5162  5165  5166     9 
 5159  5162  5165  5167     9 
 5159  5162  5165  5168     9 
 5163  5162  5165  5166     9 
 5163  5162  5165  5167     9 
 5163  5162  5165  5168     9 
 5164  5162  5165  5166     9 
 5164  5162  5165  5167     9 
 5164  5162  5165  5168     9 
 5162  5165  5168  5169     9 
 5162  5165  5168  5170     9 
 5162  5165  5168  5171     9 
 5166  5165  5168  5169     9 
 5166  5165  5168  5170     9 
 5166  5165  5168  5171     9 
 5167  5165  5168  5169     9 
 5167  5165  5168  5170     9 
 5167  5165  5168  5171     9 
 5165  5168  5171  5172     9 
 5165  5168  5171  5173     9 
 5165  5168  5171  5174     9 
 5169  5168  5171  5172     9 
 5169  5168  5171  5173     9 
 5169  5168  5171  5174     9 
 5170  5168  5171  5172     9 
 5170  5168  5171  5173     9 
 5170  5168  5171  5174     9 
 5168  5171  5174  5175     9 
 5168  5171  5174  5176     9 
 5168  5171  5174  5177     9 
 5172  5171  5174  5175     9 
 5172  5171  5174  5176     9 
 5172  5171  5174  5177     9 
 5173  5171  5174  5175     9 
 5173  5171  5174  5176     9 
 5173  5171  5174  5177     9 
 5171  5174  5177  5178     9 
 5171  5174  5177  5179     9 
 5171  5174  5177  5180     9 
 5175  5174  5177  5178     9 
 5175  5174  5177  5179     9 
 5175  5174  5177  5180     9 
 5176  5174  5177  5178     9 
 5176  5174  5177  5179     9 
 5176  5174  5177  5180     9 
 5174  5177  5180  5181     9 
 5174  5177  5180  5182     9 
 5174  5177  5180  5183     9 
 5178  5177  5180  5181     9 
 5178  5177  5180  5182     9 
 5178  5177  5180  5183     9 
 5179  5177  5180  5181     9 
 5179  5177  5180  5182     9 
 5179  5177  5180  5183     9 
 5134  5184  5187  5188     9 
 5134  5184  5187  5189     9 
 5134  5184  5187  5190     9 
 5185  5184  5187  5188     9 
 5185  5184  5187  5189     9 
 5185  5184  5187  5190     9 
 5186  5184  5187  5188     9 
 5186  5184  5187  5189     9 
 5186  5184  5187  5190     9 
 5184  5187  5190  5191     9 
 5184  5187  5190  5192     9 
 5184  5187  5190  5193     9 
 5188  5187  5190  5191     9 
 5188  5187  5190  5192     9 
 5188  5187  5190  5193     9 
 5189  5187  5190  5191     9 
 5189  5187  5190  5192     9 
 5189  5187  5190  5193     9 
 5187  5190  5193  5194     9 
 5187  5190  5193  5195     9 
 5187  5190  5193  5196     9 
 5191  5190  5193  5194     9 
 5191  5190  5193  5195     9 
 5191  5190  5193  5196     9 
 5192  5190  5193  5194     9 
 5192  5190  5193  5195     9 
 5192  5190  5193  5196     9 
 5190  5193  5196  5197     9 
 5190  5193  5196  5198     9 
 5190  5193  5196  5199     9 
 5194  5193  5196  5197     9 
 5194  5193  5196  5198     9 
 5194  5193  5196  5199     9 
 5195  5193  5196  5197     9 
 5195  5193  5196  5198     9 
 5195  5193  5196  5199     9 
 5193  5196  5199  5200     9 
 5193  5196  5199  5201     9 
 5193  5196  5199  5202     9 
 5197  5196  5199  5200     9 
 5197  5196  5199  5201     9 
 5197  5196  5199  5202     9 
 5198  5196  5199  5200     9 
 5198  5196  5199  5201     9 
 5198  5196  5199  5202     9 
 5196  5199  5202  5203     9 
 5196  5199  5202  5204     9 
 5196  5199  5202  5205     9 
 5200  5199  5202  5203     9 
 5200  5199  5202  5204     9 
 5200  5199  5202  5205     9 
 5201  5199  5202  5203     9 
 5201  5199  5202  5204     9 
 5201  5199  5202  5205     9 
 5199  5202  5205  5206     9 
 5199  5202  5205  5207     9 
 5199  5202  5205  5208     9 
 5203  5202  5205  5206     9 
 5203  5202  5205  5207     9 
 5203  5202  5205  5208     9 
 5204  5202  5205  5206     9 
 5204  5202  5205  5207     9 
 5204  5202  5205  5208     9 
 5202  5205  5208  5209     9 
 5202  5205  5208  5210     9 
 5202  5205  5208  5211     9 
 5206  5205  5208  5209     9 
 5206  5205  5208  5210     9 
 5206  5205  5208  5211     9 
 5207  5205  5208  5209     9 
 5207  5205  5208  5210     9 
 5207  5205  5208  5211     9 
 5205  5208  5211  5212     9 
 5205  5208  5211  5213     9 
 5205  5208  5211  5214     9 
 5209  5208  5211  5212     9 
 5209  5208  5211  5213     9 
 5209  5208  5211  5214     9 
 5210  5208  5211  5212     9 
 5210  5208  5211  5213     9 
 5210  5208  5211  5214     9 
 5208  5211  5214  5215     9 
 5208  5211  5214  5216     9 
 5208  5211  5214  5217     9 
 5212  5211  5214  5215     9 
 5212  5211  5214  5216     9 
 5212  5211  5214  5217     9 
 5213  5211  5214  5215     9 
 5213  5211  5214  5216     9 
 5213  5211  5214  5217     9 
 5211  5214  5217  5218     9 
 5211  5214  5217  5219     9 
 5211  5214  5217  5220     9 
 5215  5214  5217  5218     9 
 5215  5214  5217  5219     9 
 5215  5214  5217  5220     9 
 5216  5214  5217  5218     9 
 5216  5214  5217  5219     9 
 5216  5214  5217  5220     9 
 5214  5217  5220  5221     9 
 5214  5217  5220  5222     9 
 5214  5217  5220  5223     9 
 5218  5217  5220  5221     9 
 5218  5217  5220  5222     9 
 5218  5217  5220  5223     9 
 5219  5217  5220  5221     9 
 5219  5217  5220  5222     9 
 5219  5217  5220  5223     9 
 5217  5220  5223  5224     9 
 5217  5220  5223  5225     9 
 5217  5220  5223  5226     9 
 5221  5220  5223  5224     9 
 5221  5220  5223  5225     9 
 5221  5220  5223  5226     9 
 5222  5220  5223  5224     9 
 5222  5220  5223  5225     9 
 5222  5220  5223  5226     9 
 5231  5227  5228  5229     9 
 5231  5227  5228  5230     9 
 5231  5227  5228  5243     9 
 5235  5227  5228  5229     9 
 5235  5227  5228  5230     9 
 5235  5227  5228  5243     9 
 5239  5227  5228  5229     9 
 5239  5227  5228  5230     9 
 5239  5227  5228  5243     9 
 5228  5227  5231  5232     9 
 5228  5227  5231  5233     9 
 5228  5227  5231  5234     9 
 5235  5227  5231  5232     9 
 5235  5227  5231  5233     9 
 5235  5227  5231  5234     9 
 5239  5227  5231  5232     9 
 5239  5227  5231  5233     9 
 5239  5227  5231  5234     9 
 5228  5227  5235  5236     9 
 5228  5227  5235  5237     9 
 5228  5227  5235  5238     9 
 5231  5227  5235  5236     9 
 5231  5227  5235  5237     9 
 5231  5227  5235  5238     9 
 5239  5227  5235  5236     9 
 5239  5227  5235  5237     9 
 5239  5227  5235  5238     9 
 5228  5227  5239  5240     9 
 5228  5227  5239  5241     9 
 5228  5227  5239  5242     9 
 5231  5227  5239  5240     9 
 5231  5227  5239  5241     9 
 5231  5227  5239  5242     9 
 5235  5227  5239  5240     9 
 5235  5227  5239  5241     9 
 5235  5227  5239  5242     9 
 5227  5228  5243  5244     9 
 5227  5228  5243  5245     9 
 5227  5228  5243  5249     9 
 5229  5228  5243  5244     9 
 5229  5228  5243  5245     9 
 5229  5228  5243  5249     9 
 5230  5228  5243  5244     9 
 5230  5228  5243  5245     9 
 5230  5228  5243  5249     9 
 5228  5243  5249  5246     9 
 5244  5243  5249  5246     9 
 5245  5243  5249  5246     9 
 5247  5246  5249  5243     9 
 5248  5246  5249  5243     9 
 5250  5246  5249  5243     9 
 5247  5246  5250  5251     9 
 5248  5246  5250  5251     9 
 5249  5246  5250  5251     9 
 5246  5250  5251  5252     9 
 5246  5250  5251  5253     9 
 5246  5250  5251  5254     9 
 5250  5251  5254  5255     9 
 5250  5251  5254  5256     9 
 5250  5251  5254  5262     9 
 5252  5251  5254  5255     9 
 5252  5251  5254  5256     9 
 5252  5251  5254  5262     9 
 5253  5251  5254  5255     9 
 5253  5251  5254  5256     9 
 5253  5251  5254  5262     9 
 5251  5254  5256  5257     9 
 5255  5254  5256  5257     9 
 5262  5254  5256  5257     9 
 5251  5254  5262  5263     9 
 5251  5254  5262  5264     9 
 5251  5254  5262  5265     9 
 5255  5254  5262  5263     9 
 5255  5254  5262  5264     9 
 5255  5254  5262  5265     9 
 5256  5254  5262  5263     9 
 5256  5254  5262  5264     9 
 5256  5254  5262  5265     9 
 5254  5256  5257  5258     9 
 5254  5256  5257  5259     9 
 5256  5257  5259  5260     9 
 5256  5257  5259  5261     9 
 5256  5257  5259  5271     9 
 5258  5257  5259  5260     9 
 5258  5257  5259  5261     9 
 5258  5257  5259  5271     9 
 5257  5259  5271  5272     9 
 5257  5259  5271  5273     9 
 5257  5259  5271  5274     9 
 5260  5259  5271  5272     9 
 5260  5259  5271  5273     9 
 5260  5259  5271  5274     9 
 5261  5259  5271  5272     9 
 5261  5259  5271  5273     9 
 5261  5259  5271  5274     9 
 5254  5262  5265  5266     9 
 5263  5262  5265  5266     9 
 5264  5262  5265  5266     9 
 5262  5265  5266  5267     9 
 5262  5265  5266  5268     9 
 5265  5266  5268  5269     9 
 5265  5266  5268  5270     9 
 5265  5266  5268  5318     9 
 5267  5266  5268  5269     9 
 5267  5266  5268  5270     9 
 5267  5266  5268  5318     9 
 5266  5268  5318  5319     9 
 5266  5268  5318  5320     9 
 5266  5268  5318  5321     9 
 5269  5268  5318  5319     9 
 5269  5268  5318  5320     9 
 5269  5268  5318  5321     9 
 5270  5268  5318  5319     9 
 5270  5268  5318  5320     9 
 5270  5268  5318  5321     9 
 5259  5271  5274  5275     9 
 5259  5271  5274  5276     9 
 5259  5271  5274  5277     9 
 5272  5271  5274  5275     9 
 5272  5271  5274  5276     9 
 5272  5271  5274  5277     9 
 5273  5271  5274  5275     9 
 5273  5271  5274  5276     9 
 5273  5271  5274  5277     9 
 5271  5274  5277  5278     9 
 5271  5274  5277  5279     9 
 5271  5274  5277  5280     9 
 5275  5274  5277  5278     9 
 5275  5274  5277  5279     9 
 5275  5274  5277  5280     9 
 5276  5274  5277  5278     9 
 5276  5274  5277  5279     9 
 5276  5274  5277  5280     9 
 5274  5277  5280  5281     9 
 5274  5277  5280  5282     9 
 5274  5277  5280  5283     9 
 5278  5277  5280  5281     9 
 5278  5277  5280  5282     9 
 5278  5277  5280  5283     9 
 5279  5277  5280  5281     9 
 5279  5277  5280  5282     9 
 5279  5277  5280  5283     9 
 5277  5280  5283  5284     9 
 5277  5280  5283  5285     9 
 5277  5280  5283  5286     9 
 5281  5280  5283  5284     9 
 5281  5280  5283  5285     9 
 5281  5280  5283  5286     9 
 5282  5280  5283  5284     9 
 5282  5280  5283  5285     9 
 5282  5280  5283  5286     9 
 5280  5283  5286  5287     9 
 5280  5283  5286  5288     9 
 5280  5283  5286  5289     9 
 5284  5283  5286  5287     9 
 5284  5283  5286  5288     9 
 5284  5283  5286  5289     9 
 5285  5283  5286  5287     9 
 5285  5283  5286  5288     9 
 5285  5283  5286  5289     9 
 5283  5286  5289  5290     9 
 5283  5286  5289  5291     9 
 5287  5286  5289  5290     9 
 5287  5286  5289  5291     9 
 5288  5286  5289  5290     9 
 5288  5286  5289  5291     9 
 5286  5289  5291  5292     9 
 5286  5289  5291  5293     9 
 5290  5289  5291  5292     9 
 5290  5289  5291  5293     9 
 5289  5291  5293  5294     9 
 5289  5291  5293  5295     9 
 5289  5291  5293  5296     9 
 5292  5291  5293  5294     9 
 5292  5291  5293  5295     9 
 5292  5291  5293  5296     9 
 5291  5293  5296  5297     9 
 5291  5293  5296  5298     9 
 5291  5293  5296  5299     9 
 5294  5293  5296  5297     9 
 5294  5293  5296  5298     9 
 5294  5293  5296  5299     9 
 5295  5293  5296  5297     9 
 5295  5293  5296  5298     9 
 5295  5293  5296  5299     9 
 5293  5296  5299  5300     9 
 5293  5296  5299  5301     9 
 5293  5296  5299  5302     9 
 5297  5296  5299  5300     9 
 5297  5296  5299  5301     9 
 5297  5296  5299  5302     9 
 5298  5296  5299  5300     9 
 5298  5296  5299  5301     9 
 5298  5296  5299  5302     9 
 5296  5299  5302  5303     9 
 5296  5299  5302  5304     9 
 5296  5299  5302  5305     9 
 5300  5299  5302  5303     9 
 5300  5299  5302  5304     9 
 5300  5299  5302  5305     9 
 5301  5299  5302  5303     9 
 5301  5299  5302  5304     9 
 5301  5299  5302  5305     9 
 5299  5302  5305  5306     9 
 5299  5302  5305  5307     9 
 5299  5302  5305  5308     9 
 5303  5302  5305  5306     9 
 5303  5302  5305  5307     9 
 5303  5302  5305  5308     9 
 5304  5302  5305  5306     9 
 5304  5302  5305  5307     9 
 5304  5302  5305  5308     9 
 5302  5305  5308  5309     9 
 5302  5305  5308  5310     9 
 5302  5305  5308  5311     9 
 5306  5305  5308  5309     9 
 5306  5305  5308  5310     9 
 5306  5305  5308  5311     9 
 5307  5305  5308  5309     9 
 5307  5305  5308  5310     9 
 5307  5305  5308  5311     9 
 5305  5308  5311  5312     9 
 5305  5308  5311  5313     9 
 5305  5308  5311  5314     9 
 5309  5308  5311  5312     9 
 5309  5308  5311  5313     9 
 5309  5308  5311  5314     9 
 5310  5308  5311  5312     9 
 5310  5308  5311  5313     9 
 5310  5308  5311  5314     9 
 5308  5311  5314  5315     9 
 5308  5311  5314  5316     9 
 5308  5311  5314  5317     9 
 5312  5311  5314  5315     9 
 5312  5311  5314  5316     9 
 5312  5311  5314  5317     9 
 5313  5311  5314  5315     9 
 5313  5311  5314  5316     9 
 5313  5311  5314  5317     9 
 5268  5318  5321  5322     9 
 5268  5318  5321  5323     9 
 5268  5318  5321  5324     9 
 5319  5318  5321  5322     9 
 5319  5318  5321  5323     9 
 5319  5318  5321  5324     9 
 5320  5318  5321  5322     9 
 5320  5318  5321  5323     9 
 5320  5318  5321  5324     9 
 5318  5321  5324  5325     9 
 5318  5321  5324  5326     9 
 5318  5321  5324  5327     9 
 5322  5321  5324  5325     9 
 5322  5321  5324  5326     9 
 5322  5321  5324  5327     9 
 5323  5321  5324  5325     9 
 5323  5321  5324  5326     9 
 5323  5321  5324  5327     9 
 5321  5324  5327  5328     9 
 5321  5324  5327  5329     9 
 5321  5324  5327  5330     9 
 5325  5324  5327  5328     9 
 5325  5324  5327  5329     9 
 5325  5324  5327  5330     9 
 5326  5324  5327  5328     9 
 5326  5324  5327  5329     9 
 5326  5324  5327  5330     9 
 5324  5327  5330  5331     9 
 5324  5327  5330  5332     9 
 5324  5327  5330  5333     9 
 5328  5327  5330  5331     9 
 5328  5327  5330  5332     9 
 5328  5327  5330  5333     9 
 5329  5327  5330  5331     9 
 5329  5327  5330  5332     9 
 5329  5327  5330  5333     9 
 5327  5330  5333  5334     9 
 5327  5330  5333  5335     9 
 5327  5330  5333  5336     9 
 5331  5330  5333  5334     9 
 5331  5330  5333  5335     9 
 5331  5330  5333  5336     9 
 5332  5330  5333  5334     9 
 5332  5330  5333  5335     9 
 5332  5330  5333  5336     9 
 5330  5333  5336  5337     9 
 5330  5333  5336  5338     9 
 5330  5333  5336  5339     9 
 5334  5333  5336  5337     9 
 5334  5333  5336  5338     9 
 5334  5333  5336  5339     9 
 5335  5333  5336  5337     9 
 5335  5333  5336  5338     9 
 5335  5333  5336  5339     9 
 5333  5336  5339  5340     9 
 5333  5336  5339  5341     9 
 5333  5336  5339  5342     9 
 5337  5336  5339  5340     9 
 5337  5336  5339  5341     9 
 5337  5336  5339  5342     9 
 5338  5336  5339  5340     9 
 5338  5336  5339  5341     9 
 5338  5336  5339  5342     9 
 5336  5339  5342  5343     9 
 5336  5339  5342  5344     9 
 5336  5339  5342  5345     9 
 5340  5339  5342  5343     9 
 5340  5339  5342  5344     9 
 5340  5339  5342  5345     9 
 5341  5339  5342  5343     9 
 5341  5339  5342  5344     9 
 5341  5339  5342  5345     9 
 5339  5342  5345  5346     9 
 5339  5342  5345  5347     9 
 5339  5342  5345  5348     9 
 5343  5342  5345  5346     9 
 5343  5342  5345  5347     9 
 5343  5342  5345  5348     9 
 5344  5342  5345  5346     9 
 5344  5342  5345  5347     9 
 5344  5342  5345  5348     9 
 5342  5345  5348  5349     9 
 5342  5345  5348  5350     9 
 5342  5345  5348  5351     9 
 5346  5345  5348  5349     9 
 5346  5345  5348  5350     9 
 5346  5345  5348  5351     9 
 5347  5345  5348  5349     9 
 5347  5345  5348  5350     9 
 5347  5345  5348  5351     9 
 5345  5348  5351  5352     9 
 5345  5348  5351  5353     9 
 5345  5348  5351  5354     9 
 5349  5348  5351  5352     9 
 5349  5348  5351  5353     9 
 5349  5348  5351  5354     9 
 5350  5348  5351  5352     9 
 5350  5348  5351  5353     9 
 5350  5348  5351  5354     9 
 5348  5351  5354  5355     9 
 5348  5351  5354  5356     9 
 5348  5351  5354  5357     9 
 5352  5351  5354  5355     9 
 5352  5351  5354  5356     9 
 5352  5351  5354  5357     9 
 5353  5351  5354  5355     9 
 5353  5351  5354  5356     9 
 5353  5351  5354  5357     9 
 5351  5354  5357  5358     9 
 5351  5354  5357  5359     9 
 5351  5354  5357  5360     9 
 5355  5354  5357  5358     9 
 5355  5354  5357  5359     9 
 5355  5354  5357  5360     9 
 5356  5354  5357  5358     9 
 5356  5354  5357  5359     9 
 5356  5354  5357  5360     9 
 5365  5361  5362  5363     9 
 5365  5361  5362  5364     9 
 5365  5361  5362  5377     9 
 5369  5361  5362  5363     9 
 5369  5361  5362  5364     9 
 5369  5361  5362  5377     9 
 5373  5361  5362  5363     9 
 5373  5361  5362  5364     9 
 5373  5361  5362  5377     9 
 5362  5361  5365  5366     9 
 5362  5361  5365  5367     9 
 5362  5361  5365  5368     9 
 5369  5361  5365  5366     9 
 5369  5361  5365  5367     9 
 5369  5361  5365  5368     9 
 5373  5361  5365  5366     9 
 5373  5361  5365  5367     9 
 5373  5361  5365  5368     9 
 5362  5361  5369  5370     9 
 5362  5361  5369  5371     9 
 5362  5361  5369  5372     9 
 5365  5361  5369  5370     9 
 5365  5361  5369  5371     9 
 5365  5361  5369  5372     9 
 5373  5361  5369  5370     9 
 5373  5361  5369  5371     9 
 5373  5361  5369  5372     9 
 5362  5361  5373  5374     9 
 5362  5361  5373  5375     9 
 5362  5361  5373  5376     9 
 5365  5361  5373  5374     9 
 5365  5361  5373  5375     9 
 5365  5361  5373  5376     9 
 5369  5361  5373  5374     9 
 5369  5361  5373  5375     9 
 5369  5361  5373  5376     9 
 5361  5362  5377  5378     9 
 5361  5362  5377  5379     9 
 5361  5362  5377  5383     9 
 5363  5362  5377  5378     9 
 5363  5362  5377  5379     9 
 5363  5362  5377  5383     9 
 5364  5362  5377  5378     9 
 5364  5362  5377  5379     9 
 5364  5362  5377  5383     9 
 5362  5377  5383  5380     9 
 5378  5377  5383  5380     9 
 5379  5377  5383  5380     9 
 5381  5380  5383  5377     9 
 5382  5380  5383  5377     9 
 5384  5380  5383  5377     9 
 5381  5380  5384  5385     9 
 5382  5380  5384  5385     9 
 5383  5380  5384  5385     9 
 5380  5384  5385  5386     9 
 5380  5384  5385  5387     9 
 5380  5384  5385  5388     9 
 5384  5385  5388  5389     9 
 5384  5385  5388  5390     9 
 5384  5385  5388  5396     9 
 5386  5385  5388  5389     9 
 5386  5385  5388  5390     9 
 5386  5385  5388  5396     9 
 5387  5385  5388  5389     9 
 5387  5385  5388  5390     9 
 5387  5385  5388  5396     9 
 5385  5388  5390  5391     9 
 5389  5388  5390  5391     9 
 5396  5388  5390  5391     9 
 5385  5388  5396  5397     9 
 5385  5388  5396  5398     9 
 5385  5388  5396  5399     9 
 5389  5388  5396  5397     9 
 5389  5388  5396  5398     9 
 5389  5388  5396  5399     9 
 5390  5388  5396  5397     9 
 5390  5388  5396  5398     9 
 5390  5388  5396  5399     9 
 5388  5390  5391  5392     9 
 5388  5390  5391  5393     9 
 5390  5391  5393  5394     9 
 5390  5391  5393  5395     9 
 5390  5391  5393  5405     9 
 5392  5391  5393  5394     9 
 5392  5391  5393  5395     9 
 5392  5391  5393  5405     9 
 5391  5393  5405  5406     9 
 5391  5393  5405  5407     9 
 5391  5393  5405  5408     9 
 5394  5393  5405  5406     9 
 5394  5393  5405  5407     9 
 5394  5393  5405  5408     9 
 5395  5393  5405  5406     9 
 5395  5393  5405  5407     9 
 5395  5393  5405  5408     9 
 5388  5396  5399  5400     9 
 5397  5396  5399  5400     9 
 5398  5396  5399  5400     9 
 5396  5399  5400  5401     9 
 5396  5399  5400  5402     9 
 5399  5400  5402  5403     9 
 5399  5400  5402  5404     9 
 5399  5400  5402  5452     9 
 5401  5400  5402  5403     9 
 5401  5400  5402  5404     9 
 5401  5400  5402  5452     9 
 5400  5402  5452  5453     9 
 5400  5402  5452  5454     9 
 5400  5402  5452  5455     9 
 5403  5402  5452  5453     9 
 5403  5402  5452  5454     9 
 5403  5402  5452  5455     9 
 5404  5402  5452  5453     9 
 5404  5402  5452  5454     9 
 5404  5402  5452  5455     9 
 5393  5405  5408  5409     9 
 5393  5405  5408  5410     9 
 5393  5405  5408  5411     9 
 5406  5405  5408  5409     9 
 5406  5405  5408  5410     9 
 5406  5405  5408  5411     9 
 5407  5405  5408  5409     9 
 5407  5405  5408  5410     9 
 5407  5405  5408  5411     9 
 5405  5408  5411  5412     9 
 5405  5408  5411  5413     9 
 5405  5408  5411  5414     9 
 5409  5408  5411  5412     9 
 5409  5408  5411  5413     9 
 5409  5408  5411  5414     9 
 5410  5408  5411  5412     9 
 5410  5408  5411  5413     9 
 5410  5408  5411  5414     9 
 5408  5411  5414  5415     9 
 5408  5411  5414  5416     9 
 5408  5411  5414  5417     9 
 5412  5411  5414  5415     9 
 5412  5411  5414  5416     9 
 5412  5411  5414  5417     9 
 5413  5411  5414  5415     9 
 5413  5411  5414  5416     9 
 5413  5411  5414  5417     9 
 5411  5414  5417  5418     9 
 5411  5414  5417  5419     9 
 5411  5414  5417  5420     9 
 5415  5414  5417  5418     9 
 5415  5414  5417  5419     9 
 5415  5414  5417  5420     9 
 5416  5414  5417  5418     9 
 5416  5414  5417  5419     9 
 5416  5414  5417  5420     9 
 5414  5417  5420  5421     9 
 5414  5417  5420  5422     9 
 5414  5417  5420  5423     9 
 5418  5417  5420  5421     9 
 5418  5417  5420  5422     9 
 5418  5417  5420  5423     9 
 5419  5417  5420  5421     9 
 5419  5417  5420  5422     9 
 5419  5417  5420  5423     9 
 5417  5420  5423  5424     9 
 5417  5420  5423  5425     9 
 5421  5420  5423  5424     9 
 5421  5420  5423  5425     9 
 5422  5420  5423  5424     9 
 5422  5420  5423  5425     9 
 5420  5423  5425  5426     9 
 5420  5423  5425  5427     9 
 5424  5423  5425  5426     9 
 5424  5423  5425  5427     9 
 5423  5425  5427  5428     9 
 5423  5425  5427  5429     9 
 5423  5425  5427  5430     9 
 5426  5425  5427  5428     9 
 5426  5425  5427  5429     9 
 5426  5425  5427  5430     9 
 5425  5427  5430  5431     9 
 5425  5427  5430  5432     9 
 5425  5427  5430  5433     9 
 5428  5427  5430  5431     9 
 5428  5427  5430  5432     9 
 5428  5427  5430  5433     9 
 5429  5427  5430  5431     9 
 5429  5427  5430  5432     9 
 5429  5427  5430  5433     9 
 5427  5430  5433  5434     9 
 5427  5430  5433  5435     9 
 5427  5430  5433  5436     9 
 5431  5430  5433  5434     9 
 5431  5430  5433  5435     9 
 5431  5430  5433  5436     9 
 5432  5430  5433  5434     9 
 5432  5430  5433  5435     9 
 5432  5430  5433  5436     9 
 5430  5433  5436  5437     9 
 5430  5433  5436  5438     9 
 5430  5433  5436  5439     9 
 5434  5433  5436  5437     9 
 5434  5433  5436  5438     9 
 5434  5433  5436  5439     9 
 5435  5433  5436  5437     9 
 5435  5433  5436  5438     9 
 5435  5433  5436  5439     9 
 5433  5436  5439  5440     9 
 5433  5436  5439  5441     9 
 5433  5436  5439  5442     9 
 5437  5436  5439  5440     9 
 5437  5436  5439  5441     9 
 5437  5436  5439  5442     9 
 5438  5436  5439  5440     9 
 5438  5436  5439  5441     9 
 5438  5436  5439  5442     9 
 5436  5439  5442  5443     9 
 5436  5439  5442  5444     9 
 5436  5439  5442  5445     9 
 5440  5439  5442  5443     9 
 5440  5439  5442  5444     9 
 5440  5439  5442  5445     9 
 5441  5439  5442  5443     9 
 5441  5439  5442  5444     9 
 5441  5439  5442  5445     9 
 5439  5442  5445  5446     9 
 5439  5442  5445  5447     9 
 5439  5442  5445  5448     9 
 5443  5442  5445  5446     9 
 5443  5442  5445  5447     9 
 5443  5442  5445  5448     9 
 5444  5442  5445  5446     9 
 5444  5442  5445  5447     9 
 5444  5442  5445  5448     9 
 5442  5445  5448  5449     9 
 5442  5445  5448  5450     9 
 5442  5445  5448  5451     9 
 5446  5445  5448  5449     9 
 5446  5445  5448  5450     9 
 5446  5445  5448  5451     9 
 5447  5445  5448  5449     9 
 5447  5445  5448  5450     9 
 5447  5445  5448  5451     9 
 5402  5452  5455  5456     9 
 5402  5452  5455  5457     9 
 5402  5452  5455  5458     9 
 5453  5452  5455  5456     9 
 5453  5452  5455  5457     9 
 5453  5452  5455  5458     9 
 5454  5452  5455  5456     9 
 5454  5452  5455  5457     9 
 5454  5452  5455  5458     9 
 5452  5455  5458  5459     9 
 5452  5455  5458  5460     9 
 5452  5455  5458  5461     9 
 5456  5455  5458  5459     9 
 5456  5455  5458  5460     9 
 5456  5455  5458  5461     9 
 5457  5455  5458  5459     9 
 5457  5455  5458  5460     9 
 5457  5455  5458  5461     9 
 5455  5458  5461  5462     9 
 5455  5458  5461  5463     9 
 5455  5458  5461  5464     9 
 5459  5458  5461  5462     9 
 5459  5458  5461  5463     9 
 5459  5458  5461  5464     9 
 5460  5458  5461  5462     9 
 5460  5458  5461  5463     9 
 5460  5458  5461  5464     9 
 5458  5461  5464  5465     9 
 5458  5461  5464  5466     9 
 5458  5461  5464  5467     9 
 5462  5461  5464  5465     9 
 5462  5461  5464  5466     9 
 5462  5461  5464  5467     9 
 5463  5461  5464  5465     9 
 5463  5461  5464  5466     9 
 5463  5461  5464  5467     9 
 5461  5464  5467  5468     9 
 5461  5464  5467  5469     9 
 5461  5464  5467  5470     9 
 5465  5464  5467  5468     9 
 5465  5464  5467  5469     9 
 5465  5464  5467  5470     9 
 5466  5464  5467  5468     9 
 5466  5464  5467  5469     9 
 5466  5464  5467  5470     9 
 5464  5467  5470  5471     9 
 5464  5467  5470  5472     9 
 5464  5467  5470  5473     9 
 5468  5467  5470  5471     9 
 5468  5467  5470  5472     9 
 5468  5467  5470  5473     9 
 5469  5467  5470  5471     9 
 5469  5467  5470  5472     9 
 5469  5467  5470  5473     9 
 5467  5470  5473  5474     9 
 5467  5470  5473  5475     9 
 5467  5470  5473  5476     9 
 5471  5470  5473  5474     9 
 5471  5470  5473  5475     9 
 5471  5470  5473  5476     9 
 5472  5470  5473  5474     9 
 5472  5470  5473  5475     9 
 5472  5470  5473  5476     9 
 5470  5473  5476  5477     9 
 5470  5473  5476  5478     9 
 5470  5473  5476  5479     9 
 5474  5473  5476  5477     9 
 5474  5473  5476  5478     9 
 5474  5473  5476  5479     9 
 5475  5473  5476  5477     9 
 5475  5473  5476  5478     9 
 5475  5473  5476  5479     9 
 5473  5476  5479  5480     9 
 5473  5476  5479  5481     9 
 5473  5476  5479  5482     9 
 5477  5476  5479  5480     9 
 5477  5476  5479  5481     9 
 5477  5476  5479  5482     9 
 5478  5476  5479  5480     9 
 5478  5476  5479  5481     9 
 5478  5476  5479  5482     9 
 5476  5479  5482  5483     9 
 5476  5479  5482  5484     9 
 5476  5479  5482  5485     9 
 5480  5479  5482  5483     9 
 5480  5479  5482  5484     9 
 5480  5479  5482  5485     9 
 5481  5479  5482  5483     9 
 5481  5479  5482  5484     9 
 5481  5479  5482  5485     9 
 5479  5482  5485  5486     9 
 5479  5482  5485  5487     9 
 5479  5482  5485  5488     9 
 5483  5482  5485  5486     9 
 5483  5482  5485  5487     9 
 5483  5482  5485  5488     9 
 5484  5482  5485  5486     9 
 5484  5482  5485  5487     9 
 5484  5482  5485  5488     9 
 5482  5485  5488  5489     9 
 5482  5485  5488  5490     9 
 5482  5485  5488  5491     9 
 5486  5485  5488  5489     9 
 5486  5485  5488  5490     9 
 5486  5485  5488  5491     9 
 5487  5485  5488  5489     9 
 5487  5485  5488  5490     9 
 5487  5485  5488  5491     9 
 5485  5488  5491  5492     9 
 5485  5488  5491  5493     9 
 5485  5488  5491  5494     9 
 5489  5488  5491  5492     9 
 5489  5488  5491  5493     9 
 5489  5488  5491  5494     9 
 5490  5488  5491  5492     9 
 5490  5488  5491  5493     9 
 5490  5488  5491  5494     9 
 5499  5495  5496  5497     9 
 5499  5495  5496  5498     9 
 5499  5495  5496  5511     9 
 5503  5495  5496  5497     9 
 5503  5495  5496  5498     9 
 5503  5495  5496  5511     9 
 5507  5495  5496  5497     9 
 5507  5495  5496  5498     9 
 5507  5495  5496  5511     9 
 5496  5495  5499  5500     9 
 5496  5495  5499  5501     9 
 5496  5495  5499  5502     9 
 5503  5495  5499  5500     9 
 5503  5495  5499  5501     9 
 5503  5495  5499  5502     9 
 5507  5495  5499  5500     9 
 5507  5495  5499  5501     9 
 5507  5495  5499  5502     9 
 5496  5495  5503  5504     9 
 5496  5495  5503  5505     9 
 5496  5495  5503  5506     9 
 5499  5495  5503  5504     9 
 5499  5495  5503  5505     9 
 5499  5495  5503  5506     9 
 5507  5495  5503  5504     9 
 5507  5495  5503  5505     9 
 5507  5495  5503  5506     9 
 5496  5495  5507  5508     9 
 5496  5495  5507  5509     9 
 5496  5495  5507  5510     9 
 5499  5495  5507  5508     9 
 5499  5495  5507  5509     9 
 5499  5495  5507  5510     9 
 5503  5495  5507  5508     9 
 5503  5495  5507  5509     9 
 5503  5495  5507  5510     9 
 5495  5496  5511  5512     9 
 5495  5496  5511  5513     9 
 5495  5496  5511  5517     9 
 5497  5496  5511  5512     9 
 5497  5496  5511  5513     9 
 5497  5496  5511  5517     9 
 5498  5496  5511  5512     9 
 5498  5496  5511  5513     9 
 5498  5496  5511  5517     9 
 5496  5511  5517  5514     9 
 5512  5511  5517  5514     9 
 5513  5511  5517  5514     9 
 5515  5514  5517  5511     9 
 5516  5514  5517  5511     9 
 5518  5514  5517  5511     9 
 5515  5514  5518  5519     9 
 5516  5514  5518  5519     9 
 5517  5514  5518  5519     9 
 5514  5518  5519  5520     9 
 5514  5518  5519  5521     9 
 5514  5518  5519  5522     9 
 5518  5519  5522  5523     9 
 5518  5519  5522  5524     9 
 5518  5519  5522  5530     9 
 5520  5519  5522  5523     9 
 5520  5519  5522  5524     9 
 5520  5519  5522  5530     9 
 5521  5519  5522  5523     9 
 5521  5519  5522  5524     9 
 5521  5519  5522  5530     9 
 5519  5522  5524  5525     9 
 5523  5522  5524  5525     9 
 5530  5522  5524  5525     9 
 5519  5522  5530  5531     9 
 5519  5522  5530  5532     9 
 5519  5522  5530  5533     9 
 5523  5522  5530  5531     9 
 5523  5522  5530  5532     9 
 5523  5522  5530  5533     9 
 5524  5522  5530  5531     9 
 5524  5522  5530  5532     9 
 5524  5522  5530  5533     9 
 5522  5524  5525  5526     9 
 5522  5524  5525  5527     9 
 5524  5525  5527  5528     9 
 5524  5525  5527  5529     9 
 5524  5525  5527  5539     9 
 5526  5525  5527  5528     9 
 5526  5525  5527  5529     9 
 5526  5525  5527  5539     9 
 5525  5527  5539  5540     9 
 5525  5527  5539  5541     9 
 5525  5527  5539  5542     9 
 5528  5527  5539  5540     9 
 5528  5527  5539  5541     9 
 5528  5527  5539  5542     9 
 5529  5527  5539  5540     9 
 5529  5527  5539  5541     9 
 5529  5527  5539  5542     9 
 5522  5530  5533  5534     9 
 5531  5530  5533  5534     9 
 5532  5530  5533  5534     9 
 5530  5533  5534  5535     9 
 5530  5533  5534  5536     9 
 5533  5534  5536  5537     9 
 5533  5534  5536  5538     9 
 5533  5534  5536  5586     9 
 5535  5534  5536  5537     9 
 5535  5534  5536  5538     9 
 5535  5534  5536  5586     9 
 5534  5536  5586  5587     9 
 5534  5536  5586  5588     9 
 5534  5536  5586  5589     9 
 5537  5536  5586  5587     9 
 5537  5536  5586  5588     9 
 5537  5536  5586  5589     9 
 5538  5536  5586  5587     9 
 5538  5536  5586  5588     9 
 5538  5536  5586  5589     9 
 5527  5539  5542  5543     9 
 5527  5539  5542  5544     9 
 5527  5539  5542  5545     9 
 5540  5539  5542  5543     9 
 5540  5539  5542  5544     9 
 5540  5539  5542  5545     9 
 5541  5539  5542  5543     9 
 5541  5539  5542  5544     9 
 5541  5539  5542  5545     9 
 5539  5542  5545  5546     9 
 5539  5542  5545  5547     9 
 5539  5542  5545  5548     9 
 5543  5542  5545  5546     9 
 5543  5542  5545  5547     9 
 5543  5542  5545  5548     9 
 5544  5542  5545  5546     9 
 5544  5542  5545  5547     9 
 5544  5542  5545  5548     9 
 5542  5545  5548  5549     9 
 5542  5545  5548  5550     9 
 5542  5545  5548  5551     9 
 5546  5545  5548  5549     9 
 5546  5545  5548  5550     9 
 5546  5545  5548  5551     9 
 5547  5545  5548  5549     9 
 5547  5545  5548  5550     9 
 5547  5545  5548  5551     9 
 5545  5548  5551  5552     9 
 5545  5548  5551  5553     9 
 5545  5548  5551  5554     9 
 5549  5548  5551  5552     9 
 5549  5548  5551  5553     9 
 5549  5548  5551  5554     9 
 5550  5548  5551  5552     9 
 5550  5548  5551  5553     9 
 5550  5548  5551  5554     9 
 5548  5551  5554  5555     9 
 5548  5551  5554  5556     9 
 5548  5551  5554  5557     9 
 5552  5551  5554  5555     9 
 5552  5551  5554  5556     9 
 5552  5551  5554  5557     9 
 5553  5551  5554  5555     9 
 5553  5551  5554  5556     9 
 5553  5551  5554  5557     9 
 5551  5554  5557  5558     9 
 5551  5554  5557  5559     9 
 5555  5554  5557  5558     9 
 5555  5554  5557  5559     9 
 5556  5554  5557  5558     9 
 5556  5554  5557  5559     9 
 5554  5557  5559  5560     9 
 5554  5557  5559  5561     9 
 5558  5557  5559  5560     9 
 5558  5557  5559  5561     9 
 5557  5559  5561  5562     9 
 5557  5559  5561  5563     9 
 5557  5559  5561  5564     9 
 5560  5559  5561  5562     9 
 5560  5559  5561  5563     9 
 5560  5559  5561  5564     9 
 5559  5561  5564  5565     9 
 5559  5561  5564  5566     9 
 5559  5561  5564  5567     9 
 5562  5561  5564  5565     9 
 5562  5561  5564  5566     9 
 5562  5561  5564  5567     9 
 5563  5561  5564  5565     9 
 5563  5561  5564  5566     9 
 5563  5561  5564  5567     9 
 5561  5564  5567  5568     9 
 5561  5564  5567  5569     9 
 5561  5564  5567  5570     9 
 5565  5564  5567  5568     9 
 5565  5564  5567  5569     9 
 5565  5564  5567  5570     9 
 5566  5564  5567  5568     9 
 5566  5564  5567  5569     9 
 5566  5564  5567  5570     9 
 5564  5567  5570  5571     9 
 5564  5567  5570  5572     9 
 5564  5567  5570  5573     9 
 5568  5567  5570  5571     9 
 5568  5567  5570  5572     9 
 5568  5567  5570  5573     9 
 5569  5567  5570  5571     9 
 5569  5567  5570  5572     9 
 5569  5567  5570  5573     9 
 5567  5570  5573  5574     9 
 5567  5570  5573  5575     9 
 5567  5570  5573  5576     9 
 5571  5570  5573  5574     9 
 5571  5570  5573  5575     9 
 5571  5570  5573  5576     9 
 5572  5570  5573  5574     9 
 5572  5570  5573  5575     9 
 5572  5570  5573  5576     9 
 5570  5573  5576  5577     9 
 5570  5573  5576  5578     9 
 5570  5573  5576  5579     9 
 5574  5573  5576  5577     9 
 5574  5573  5576  5578     9 
 5574  5573  5576  5579     9 
 5575  5573  5576  5577     9 
 5575  5573  5576  5578     9 
 5575  5573  5576  5579     9 
 5573  5576  5579  5580     9 
 5573  5576  5579  5581     9 
 5573  5576  5579  5582     9 
 5577  5576  5579  5580     9 
 5577  5576  5579  5581     9 
 5577  5576  5579  5582     9 
 5578  5576  5579  5580     9 
 5578  5576  5579  5581     9 
 5578  5576  5579  5582     9 
 5576  5579  5582  5583     9 
 5576  5579  5582  5584     9 
 5576  5579  5582  5585     9 
 5580  5579  5582  5583     9 
 5580  5579  5582  5584     9 
 5580  5579  5582  5585     9 
 5581  5579  5582  5583     9 
 5581  5579  5582  5584     9 
 5581  5579  5582  5585     9 
 5536  5586  5589  5590     9 
 5536  5586  5589  5591     9 
 5536  5586  5589  5592     9 
 5587  5586  5589  5590     9 
 5587  5586  5589  5591     9 
 5587  5586  5589  5592     9 
 5588  5586  5589  5590     9 
 5588  5586  5589  5591     9 
 5588  5586  5589  5592     9 
 5586  5589  5592  5593     9 
 5586  5589  5592  5594     9 
 5586  5589  5592  5595     9 
 5590  5589  5592  5593     9 
 5590  5589  5592  5594     9 
 5590  5589  5592  5595     9 
 5591  5589  5592  5593     9 
 5591  5589  5592  5594     9 
 5591  5589  5592  5595     9 
 5589  5592  5595  5596     9 
 5589  5592  5595  5597     9 
 5589  5592  5595  5598     9 
 5593  5592  5595  5596     9 
 5593  5592  5595  5597     9 
 5593  5592  5595  5598     9 
 5594  5592  5595  5596     9 
 5594  5592  5595  5597     9 
 5594  5592  5595  5598     9 
 5592  5595  5598  5599     9 
 5592  5595  5598  5600     9 
 5592  5595  5598  5601     9 
 5596  5595  5598  5599     9 
 5596  5595  5598  5600     9 
 5596  5595  5598  5601     9 
 5597  5595  5598  5599     9 
 5597  5595  5598  5600     9 
 5597  5595  5598  5601     9 
 5595  5598  5601  5602     9 
 5595  5598  5601  5603     9 
 5595  5598  5601  5604     9 
 5599  5598  5601  5602     9 
 5599  5598  5601  5603     9 
 5599  5598  5601  5604     9 
 5600  5598  5601  5602     9 
 5600  5598  5601  5603     9 
 5600  5598  5601  5604     9 
 5598  5601  5604  5605     9 
 5598  5601  5604  5606     9 
 5598  5601  5604  5607     9 
 5602  5601  5604  5605     9 
 5602  5601  5604  5606     9 
 5602  5601  5604  5607     9 
 5603  5601  5604  5605     9 
 5603  5601  5604  5606     9 
 5603  5601  5604  5607     9 
 5601  5604  5607  5608     9 
 5601  5604  5607  5609     9 
 5601  5604  5607  5610     9 
 5605  5604  5607  5608     9 
 5605  5604  5607  5609     9 
 5605  5604  5607  5610     9 
 5606  5604  5607  5608     9 
 5606  5604  5607  5609     9 
 5606  5604  5607  5610     9 
 5604  5607  5610  5611     9 
 5604  5607  5610  5612     9 
 5604  5607  5610  5613     9 
 5608  5607  5610  5611     9 
 5608  5607  5610  5612     9 
 5608  5607  5610  5613     9 
 5609  5607  5610  5611     9 
 5609  5607  5610  5612     9 
 5609  5607  5610  5613     9 
 5607  5610  5613  5614     9 
 5607  5610  5613  5615     9 
 5607  5610  5613  5616     9 
 5611  5610  5613  5614     9 
 5611  5610  5613  5615     9 
 5611  5610  5613  5616     9 
 5612  5610  5613  5614     9 
 5612  5610  5613  5615     9 
 5612  5610  5613  5616     9 
 5610  5613  5616  5617     9 
 5610  5613  5616  5618     9 
 5610  5613  5616  5619     9 
 5614  5613  5616  5617     9 
 5614  5613  5616  5618     9 
 5614  5613  5616  5619     9 
 5615  5613  5616  5617     9 
 5615  5613  5616  5618     9 
 5615  5613  5616  5619     9 
 5613  5616  5619  5620     9 
 5613  5616  5619  5621     9 
 5613  5616  5619  5622     9 
 5617  5616  5619  5620     9 
 5617  5616  5619  5621     9 
 5617  5616  5619  5622     9 
 5618  5616  5619  5620     9 
 5618  5616  5619  5621     9 
 5618  5616  5619  5622     9 
 5616  5619  5622  5623     9 
 5616  5619  5622  5624     9 
 5616  5619  5622  5625     9 
 5620  5619  5622  5623     9 
 5620  5619  5622  5624     9 
 5620  5619  5622  5625     9 
 5621  5619  5622  5623     9 
 5621  5619  5622  5624     9 
 5621  5619  5622  5625     9 
 5619  5622  5625  5626     9 
 5619  5622  5625  5627     9 
 5619  5622  5625  5628     9 
 5623  5622  5625  5626     9 
 5623  5622  5625  5627     9 
 5623  5622  5625  5628     9 
 5624  5622  5625  5626     9 
 5624  5622  5625  5627     9 
 5624  5622  5625  5628     9 
 5633  5629  5630  5631     9 
 5633  5629  5630  5632     9 
 5633  5629  5630  5645     9 
 5637  5629  5630  5631     9 
 5637  5629  5630  5632     9 
 5637  5629  5630  5645     9 
 5641  5629  5630  5631     9 
 5641  5629  5630  5632     9 
 5641  5629  5630  5645     9 
 5630  5629  5633  5634     9 
 5630  5629  5633  5635     9 
 5630  5629  5633  5636     9 
 5637  5629  5633  5634     9 
 5637  5629  5633  5635     9 
 5637  5629  5633  5636     9 
 5641  5629  5633  5634     9 
 5641  5629  5633  5635     9 
 5641  5629  5633  5636     9 
 5630  5629  5637  5638     9 
 5630  5629  5637  5639     9 
 5630  5629  5637  5640     9 
 5633  5629  5637  5638     9 
 5633  5629  5637  5639     9 
 5633  5629  5637  5640     9 
 5641  5629  5637  5638     9 
 5641  5629  5637  5639     9 
 5641  5629  5637  5640     9 
 5630  5629  5641  5642     9 
 5630  5629  5641  5643     9 
 5630  5629  5641  5644     9 
 5633  5629  5641  5642     9 
 5633  5629  5641  5643     9 
 5633  5629  5641  5644     9 
 5637  5629  5641  5642     9 
 5637  5629  5641  5643     9 
 5637  5629  5641  5644     9 
 5629  5630  5645  5646     9 
 5629  5630  5645  5647     9 
 5629  5630  5645  5651     9 
 5631  5630  5645  5646     9 
 5631  5630  5645  5647     9 
 5631  5630  5645  5651     9 
 5632  5630  5645  5646     9 
 5632  5630  5645  5647     9 
 5632  5630  5645  5651     9 
 5630  5645  5651  5648     9 
 5646  5645  5651  5648     9 
 5647  5645  5651  5648     9 
 5649  5648  5651  5645     9 
 5650  5648  5651  5645     9 
 5652  5648  5651  5645     9 
 5649  5648  5652  5653     9 
 5650  5648  5652  5653     9 
 5651  5648  5652  5653     9 
 5648  5652  5653  5654     9 
 5648  5652  5653  5655     9 
 5648  5652  5653  5656     9 
 5652  5653  5656  5657     9 
 5652  5653  5656  5658     9 
 5652  5653  5656  5664     9 
 5654  5653  5656  5657     9 
 5654  5653  5656  5658     9 
 5654  5653  5656  5664     9 
 5655  5653  5656  5657     9 
 5655  5653  5656  5658     9 
 5655  5653  5656  5664     9 
 5653  5656  5658  5659     9 
 5657  5656  5658  5659     9 
 5664  5656  5658  5659     9 
 5653  5656  5664  5665     9 
 5653  5656  5664  5666     9 
 5653  5656  5664  5667     9 
 5657  5656  5664  5665     9 
 5657  5656  5664  5666     9 
 5657  5656  5664  5667     9 
 5658  5656  5664  5665     9 
 5658  5656  5664  5666     9 
 5658  5656  5664  5667     9 
 5656  5658  5659  5660     9 
 5656  5658  5659  5661     9 
 5658  5659  5661  5662     9 
 5658  5659  5661  5663     9 
 5658  5659  5661  5673     9 
 5660  5659  5661  5662     9 
 5660  5659  5661  5663     9 
 5660  5659  5661  5673     9 
 5659  5661  5673  5674     9 
 5659  5661  5673  5675     9 
 5659  5661  5673  5676     9 
 5662  5661  5673  5674     9 
 5662  5661  5673  5675     9 
 5662  5661  5673  5676     9 
 5663  5661  5673  5674     9 
 5663  5661  5673  5675     9 
 5663  5661  5673  5676     9 
 5656  5664  5667  5668     9 
 5665  5664  5667  5668     9 
 5666  5664  5667  5668     9 
 5664  5667  5668  5669     9 
 5664  5667  5668  5670     9 
 5667  5668  5670  5671     9 
 5667  5668  5670  5672     9 
 5667  5668  5670  5720     9 
 5669  5668  5670  5671     9 
 5669  5668  5670  5672     9 
 5669  5668  5670  5720     9 
 5668  5670  5720  5721     9 
 5668  5670  5720  5722     9 
 5668  5670  5720  5723     9 
 5671  5670  5720  5721     9 
 5671  5670  5720  5722     9 
 5671  5670  5720  5723     9 
 5672  5670  5720  5721     9 
 5672  5670  5720  5722     9 
 5672  5670  5720  5723     9 
 5661  5673  5676  5677     9 
 5661  5673  5676  5678     9 
 5661  5673  5676  5679     9 
 5674  5673  5676  5677     9 
 5674  5673  5676  5678     9 
 5674  5673  5676  5679     9 
 5675  5673  5676  5677     9 
 5675  5673  5676  5678     9 
 5675  5673  5676  5679     9 
 5673  5676  5679  5680     9 
 5673  5676  5679  5681     9 
 5673  5676  5679  5682     9 
 5677  5676  5679  5680     9 
 5677  5676  5679  5681     9 
 5677  5676  5679  5682     9 
 5678  5676  5679  5680     9 
 5678  5676  5679  5681     9 
 5678  5676  5679  5682     9 
 5676  5679  5682  5683     9 
 5676  5679  5682  5684     9 
 5676  5679  5682  5685     9 
 5680  5679  5682  5683     9 
 5680  5679  5682  5684     9 
 5680  5679  5682  5685     9 
 5681  5679  5682  5683     9 
 5681  5679  5682  5684     9 
 5681  5679  5682  5685     9 
 5679  5682  5685  5686     9 
 5679  5682  5685  5687     9 
 5679  5682  5685  5688     9 
 5683  5682  5685  5686     9 
 5683  5682  5685  5687     9 
 5683  5682  5685  5688     9 
 5684  5682  5685  5686     9 
 5684  5682  5685  5687     9 
 5684  5682  5685  5688     9 
 5682  5685  5688  5689     9 
 5682  5685  5688  5690     9 
 5682  5685  5688  5691     9 
 5686  5685  5688  5689     9 
 5686  5685  5688  5690     9 
 5686  5685  5688  5691     9 
 5687  5685  5688  5689     9 
 5687  5685  5688  5690     9 
 5687  5685  5688  5691     9 
 5685  5688  5691  5692     9 
 5685  5688  5691  5693     9 
 5689  5688  5691  5692     9 
 5689  5688  5691  5693     9 
 5690  5688  5691  5692     9 
 5690  5688  5691  5693     9 
 5688  5691  5693  5694     9 
 5688  5691  5693  5695     9 
 5692  5691  5693  5694     9 
 5692  5691  5693  5695     9 
 5691  5693  5695  5696     9 
 5691  5693  5695  5697     9 
 5691  5693  5695  5698     9 
 5694  5693  5695  5696     9 
 5694  5693  5695  5697     9 
 5694  5693  5695  5698     9 
 5693  5695  5698  5699     9 
 5693  5695  5698  5700     9 
 5693  5695  5698  5701     9 
 5696  5695  5698  5699     9 
 5696  5695  5698  5700     9 
 5696  5695  5698  5701     9 
 5697  5695  5698  5699     9 
 5697  5695  5698  5700     9 
 5697  5695  5698  5701     9 
 5695  5698  5701  5702     9 
 5695  5698  5701  5703     9 
 5695  5698  5701  5704     9 
 5699  5698  5701  5702     9 
 5699  5698  5701  5703     9 
 5699  5698  5701  5704     9 
 5700  5698  5701  5702     9 
 5700  5698  5701  5703     9 
 5700  5698  5701  5704     9 
 5698  5701  5704  5705     9 
 5698  5701  5704  5706     9 
 5698  5701  5704  5707     9 
 5702  5701  5704  5705     9 
 5702  5701  5704  5706     9 
 5702  5701  5704  5707     9 
 5703  5701  5704  5705     9 
 5703  5701  5704  5706     9 
 5703  5701  5704  5707     9 
 5701  5704  5707  5708     9 
 5701  5704  5707  5709     9 
 5701  5704  5707  5710     9 
 5705  5704  5707  5708     9 
 5705  5704  5707  5709     9 
 5705  5704  5707  5710     9 
 5706  5704  5707  5708     9 
 5706  5704  5707  5709     9 
 5706  5704  5707  5710     9 
 5704  5707  5710  5711     9 
 5704  5707  5710  5712     9 
 5704  5707  5710  5713     9 
 5708  5707  5710  5711     9 
 5708  5707  5710  5712     9 
 5708  5707  5710  5713     9 
 5709  5707  5710  5711     9 
 5709  5707  5710  5712     9 
 5709  5707  5710  5713     9 
 5707  5710  5713  5714     9 
 5707  5710  5713  5715     9 
 5707  5710  5713  5716     9 
 5711  5710  5713  5714     9 
 5711  5710  5713  5715     9 
 5711  5710  5713  5716     9 
 5712  5710  5713  5714     9 
 5712  5710  5713  5715     9 
 5712  5710  5713  5716     9 
 5710  5713  5716  5717     9 
 5710  5713  5716  5718     9 
 5710  5713  5716  5719     9 
 5714  5713  5716  5717     9 
 5714  5713  5716  5718     9 
 5714  5713  5716  5719     9 
 5715  5713  5716  5717     9 
 5715  5713  5716  5718     9 
 5715  5713  5716  5719     9 
 5670  5720  5723  5724     9 
 5670  5720  5723  5725     9 
 5670  5720  5723  5726     9 
 5721  5720  5723  5724     9 
 5721  5720  5723  5725     9 
 5721  5720  5723  5726     9 
 5722  5720  5723  5724     9 
 5722  5720  5723  5725     9 
 5722  5720  5723  5726     9 
 5720  5723  5726  5727     9 
 5720  5723  5726  5728     9 
 5720  5723  5726  5729     9 
 5724  5723  5726  5727     9 
 5724  5723  5726  5728     9 
 5724  5723  5726  5729     9 
 5725  5723  5726  5727     9 
 5725  5723  5726  5728     9 
 5725  5723  5726  5729     9 
 5723  5726  5729  5730     9 
 5723  5726  5729  5731     9 
 5723  5726  5729  5732     9 
 5727  5726  5729  5730     9 
 5727  5726  5729  5731     9 
 5727  5726  5729  5732     9 
 5728  5726  5729  5730     9 
 5728  5726  5729  5731     9 
 5728  5726  5729  5732     9 
 5726  5729  5732  5733     9 
 5726  5729  5732  5734     9 
 5726  5729  5732  5735     9 
 5730  5729  5732  5733     9 
 5730  5729  5732  5734     9 
 5730  5729  5732  5735     9 
 5731  5729  5732  5733     9 
 5731  5729  5732  5734     9 
 5731  5729  5732  5735     9 
 5729  5732  5735  5736     9 
 5729  5732  5735  5737     9 
 5729  5732  5735  5738     9 
 5733  5732  5735  5736     9 
 5733  5732  5735  5737     9 
 5733  5732  5735  5738     9 
 5734  5732  5735  5736     9 
 5734  5732  5735  5737     9 
 5734  5732  5735  5738     9 
 5732  5735  5738  5739     9 
 5732  5735  5738  5740     9 
 5732  5735  5738  5741     9 
 5736  5735  5738  5739     9 
 5736  5735  5738  5740     9 
 5736  5735  5738  5741     9 
 5737  5735  5738  5739     9 
 5737  5735  5738  5740     9 
 5737  5735  5738  5741     9 
 5735  5738  5741  5742     9 
 5735  5738  5741  5743     9 
 5735  5738  5741  5744     9 
 5739  5738  5741  5742     9 
 5739  5738  5741  5743     9 
 5739  5738  5741  5744     9 
 5740  5738  5741  5742     9 
 5740  5738  5741  5743     9 
 5740  5738  5741  5744     9 
 5738  5741  5744  5745     9 
 5738  5741  5744  5746     9 
 5738  5741  5744  5747     9 
 5742  5741  5744  5745     9 
 5742  5741  5744  5746     9 
 5742  5741  5744  5747     9 
 5743  5741  5744  5745     9 
 5743  5741  5744  5746     9 
 5743  5741  5744  5747     9 
 5741  5744  5747  5748     9 
 5741  5744  5747  5749     9 
 5741  5744  5747  5750     9 
 5745  5744  5747  5748     9 
 5745  5744  5747  5749     9 
 5745  5744  5747  5750     9 
 5746  5744  5747  5748     9 
 5746  5744  5747  5749     9 
 5746  5744  5747  5750     9 
 5744  5747  5750  5751     9 
 5744  5747  5750  5752     9 
 5744  5747  5750  5753     9 
 5748  5747  5750  5751     9 
 5748  5747  5750  5752     9 
 5748  5747  5750  5753     9 
 5749  5747  5750  5751     9 
 5749  5747  5750  5752     9 
 5749  5747  5750  5753     9 
 5747  5750  5753  5754     9 
 5747  5750  5753  5755     9 
 5747  5750  5753  5756     9 
 5751  5750  5753  5754     9 
 5751  5750  5753  5755     9 
 5751  5750  5753  5756     9 
 5752  5750  5753  5754     9 
 5752  5750  5753  5755     9 
 5752  5750  5753  5756     9 
 5750  5753  5756  5757     9 
 5750  5753  5756  5758     9 
 5750  5753  5756  5759     9 
 5754  5753  5756  5757     9 
 5754  5753  5756  5758     9 
 5754  5753  5756  5759     9 
 5755  5753  5756  5757     9 
 5755  5753  5756  5758     9 
 5755  5753  5756  5759     9 
 5753  5756  5759  5760     9 
 5753  5756  5759  5761     9 
 5753  5756  5759  5762     9 
 5757  5756  5759  5760     9 
 5757  5756  5759  5761     9 
 5757  5756  5759  5762     9 
 5758  5756  5759  5760     9 
 5758  5756  5759  5761     9 
 5758  5756  5759  5762     9 
 5767  5763  5764  5765     9 
 5767  5763  5764  5766     9 
 5767  5763  5764  5779     9 
 5771  5763  5764  5765     9 
 5771  5763  5764  5766     9 
 5771  5763  5764  5779     9 
 5775  5763  5764  5765     9 
 5775  5763  5764  5766     9 
 5775  5763  5764  5779     9 
 5764  5763  5767  5768     9 
 5764  5763  5767  5769     9 
 5764  5763  5767  5770     9 
 5771  5763  5767  5768     9 
 5771  5763  5767  5769     9 
 5771  5763  5767  5770     9 
 5775  5763  5767  5768     9 
 5775  5763  5767  5769     9 
 5775  5763  5767  5770     9 
 5764  5763  5771  5772     9 
 5764  5763  5771  5773     9 
 5764  5763  5771  5774     9 
 5767  5763  5771  5772     9 
 5767  5763  5771  5773     9 
 5767  5763  5771  5774     9 
 5775  5763  5771  5772     9 
 5775  5763  5771  5773     9 
 5775  5763  5771  5774     9 
 5764  5763  5775  5776     9 
 5764  5763  5775  5777     9 
 5764  5763  5775  5778     9 
 5767  5763  5775  5776     9 
 5767  5763  5775  5777     9 
 5767  5763  5775  5778     9 
 5771  5763  5775  5776     9 
 5771  5763  5775  5777     9 
 5771  5763  5775  5778     9 
 5763  5764  5779  5780     9 
 5763  5764  5779  5781     9 
 5763  5764  5779  5785     9 
 5765  5764  5779  5780     9 
 5765  5764  5779  5781     9 
 5765  5764  5779  5785     9 
 5766  5764  5779  5780     9 
 5766  5764  5779  5781     9 
 5766  5764  5779  5785     9 
 5764  5779  5785  5782     9 
 5780  5779  5785  5782     9 
 5781  5779  5785  5782     9 
 5783  5782  5785  5779     9 
 5784  5782  5785  5779     9 
 5786  5782  5785  5779     9 
 5783  5782  5786  5787     9 
 5784  5782  5786  5787     9 
 5785  5782  5786  5787     9 
 5782  5786  5787  5788     9 
 5782  5786  5787  5789     9 
 5782  5786  5787  5790     9 
 5786  5787  5790  5791     9 
 5786  5787  5790  5792     9 
 5786  5787  5790  5798     9 
 5788  5787  5790  5791     9 
 5788  5787  5790  5792     9 
 5788  5787  5790  5798     9 
 5789  5787  5790  5791     9 
 5789  5787  5790  5792     9 
 5789  5787  5790  5798     9 
 5787  5790  5792  5793     9 
 5791  5790  5792  5793     9 
 5798  5790  5792  5793     9 
 5787  5790  5798  5799     9 
 5787  5790  5798  5800     9 
 5787  5790  5798  5801     9 
 5791  5790  5798  5799     9 
 5791  5790  5798  5800     9 
 5791  5790  5798  5801     9 
 5792  5790  5798  5799     9 
 5792  5790  5798  5800     9 
 5792  5790  5798  5801     9 
 5790  5792  5793  5794     9 
 5790  5792  5793  5795     9 
 5792  5793  5795  5796     9 
 5792  5793  5795  5797     9 
 5792  5793  5795  5807     9 
 5794  5793  5795  5796     9 
 5794  5793  5795  5797     9 
 5794  5793  5795  5807     9 
 5793  5795  5807  5808     9 
 5793  5795  5807  5809     9 
 5793  5795  5807  5810     9 
 5796  5795  5807  5808     9 
 5796  5795  5807  5809     9 
 5796  5795  5807  5810     9 
 5797  5795  5807  5808     9 
 5797  5795  5807  5809     9 
 5797  5795  5807  5810     9 
 5790  5798  5801  5802     9 
 5799  5798  5801  5802     9 
 5800  5798  5801  5802     9 
 5798  5801  5802  5803     9 
 5798  5801  5802  5804     9 
 5801  5802  5804  5805     9 
 5801  5802  5804  5806     9 
 5801  5802  5804  5854     9 
 5803  5802  5804  5805     9 
 5803  5802  5804  5806     9 
 5803  5802  5804  5854     9 
 5802  5804  5854  5855     9 
 5802  5804  5854  5856     9 
 5802  5804  5854  5857     9 
 5805  5804  5854  5855     9 
 5805  5804  5854  5856     9 
 5805  5804  5854  5857     9 
 5806  5804  5854  5855     9 
 5806  5804  5854  5856     9 
 5806  5804  5854  5857     9 
 5795  5807  5810  5811     9 
 5795  5807  5810  5812     9 
 5795  5807  5810  5813     9 
 5808  5807  5810  5811     9 
 5808  5807  5810  5812     9 
 5808  5807  5810  5813     9 
 5809  5807  5810  5811     9 
 5809  5807  5810  5812     9 
 5809  5807  5810  5813     9 
 5807  5810  5813  5814     9 
 5807  5810  5813  5815     9 
 5807  5810  5813  5816     9 
 5811  5810  5813  5814     9 
 5811  5810  5813  5815     9 
 5811  5810  5813  5816     9 
 5812  5810  5813  5814     9 
 5812  5810  5813  5815     9 
 5812  5810  5813  5816     9 
 5810  5813  5816  5817     9 
 5810  5813  5816  5818     9 
 5810  5813  5816  5819     9 
 5814  5813  5816  5817     9 
 5814  5813  5816  5818     9 
 5814  5813  5816  5819     9 
 5815  5813  5816  5817     9 
 5815  5813  5816  5818     9 
 5815  5813  5816  5819     9 
 5813  5816  5819  5820     9 
 5813  5816  5819  5821     9 
 5813  5816  5819  5822     9 
 5817  5816  5819  5820     9 
 5817  5816  5819  5821     9 
 5817  5816  5819  5822     9 
 5818  5816  5819  5820     9 
 5818  5816  5819  5821     9 
 5818  5816  5819  5822     9 
 5816  5819  5822  5823     9 
 5816  5819  5822  5824     9 
 5816  5819  5822  5825     9 
 5820  5819  5822  5823     9 
 5820  5819  5822  5824     9 
 5820  5819  5822  5825     9 
 5821  5819  5822  5823     9 
 5821  5819  5822  5824     9 
 5821  5819  5822  5825     9 
 5819  5822  5825  5826     9 
 5819  5822  5825  5827     9 
 5823  5822  5825  5826     9 
 5823  5822  5825  5827     9 
 5824  5822  5825  5826     9 
 5824  5822  5825  5827     9 
 5822  5825  5827  5828     9 
 5822  5825  5827  5829     9 
 5826  5825  5827  5828     9 
 5826  5825  5827  5829     9 
 5825  5827  5829  5830     9 
 5825  5827  5829  5831     9 
 5825  5827  5829  5832     9 
 5828  5827  5829  5830     9 
 5828  5827  5829  5831     9 
 5828  5827  5829  5832     9 
 5827  5829  5832  5833     9 
 5827  5829  5832  5834     9 
 5827  5829  5832  5835     9 
 5830  5829  5832  5833     9 
 5830  5829  5832  5834     9 
 5830  5829  5832  5835     9 
 5831  5829  5832  5833     9 
 5831  5829  5832  5834     9 
 5831  5829  5832  5835     9 
 5829  5832  5835  5836     9 
 5829  5832  5835  5837     9 
 5829  5832  5835  5838     9 
 5833  5832  5835  5836     9 
 5833  5832  5835  5837     9 
 5833  5832  5835  5838     9 
 5834  5832  5835  5836     9 
 5834  5832  5835  5837     9 
 5834  5832  5835  5838     9 
 5832  5835  5838  5839     9 
 5832  5835  5838  5840     9 
 5832  5835  5838  5841     9 
 5836  5835  5838  5839     9 
 5836  5835  5838  5840     9 
 5836  5835  5838  5841     9 
 5837  5835  5838  5839     9 
 5837  5835  5838  5840     9 
 5837  5835  5838  5841     9 
 5835  5838  5841  5842     9 
 5835  5838  5841  5843     9 
 5835  5838  5841  5844     9 
 5839  5838  5841  5842     9 
 5839  5838  5841  5843     9 
 5839  5838  5841  5844     9 
 5840  5838  5841  5842     9 
 5840  5838  5841  5843     9 
 5840  5838  5841  5844     9 
 5838  5841  5844  5845     9 
 5838  5841  5844  5846     9 
 5838  5841  5844  5847     9 
 5842  5841  5844  5845     9 
 5842  5841  5844  5846     9 
 5842  5841  5844  5847     9 
 5843  5841  5844  5845     9 
 5843  5841  5844  5846     9 
 5843  5841  5844  5847     9 
 5841  5844  5847  5848     9 
 5841  5844  5847  5849     9 
 5841  5844  5847  5850     9 
 5845  5844  5847  5848     9 
 5845  5844  5847  5849     9 
 5845  5844  5847  5850     9 
 5846  5844  5847  5848     9 
 5846  5844  5847  5849     9 
 5846  5844  5847  5850     9 
 5844  5847  5850  5851     9 
 5844  5847  5850  5852     9 
 5844  5847  5850  5853     9 
 5848  5847  5850  5851     9 
 5848  5847  5850  5852     9 
 5848  5847  5850  5853     9 
 5849  5847  5850  5851     9 
 5849  5847  5850  5852     9 
 5849  5847  5850  5853     9 
 5804  5854  5857  5858     9 
 5804  5854  5857  5859     9 
 5804  5854  5857  5860     9 
 5855  5854  5857  5858     9 
 5855  5854  5857  5859     9 
 5855  5854  5857  5860     9 
 5856  5854  5857  5858     9 
 5856  5854  5857  5859     9 
 5856  5854  5857  5860     9 
 5854  5857  5860  5861     9 
 5854  5857  5860  5862     9 
 5854  5857  5860  5863     9 
 5858  5857  5860  5861     9 
 5858  5857  5860  5862     9 
 5858  5857  5860  5863     9 
 5859  5857  5860  5861     9 
 5859  5857  5860  5862     9 
 5859  5857  5860  5863     9 
 5857  5860  5863  5864     9 
 5857  5860  5863  5865     9 
 5857  5860  5863  5866     9 
 5861  5860  5863  5864     9 
 5861  5860  5863  5865     9 
 5861  5860  5863  5866     9 
 5862  5860  5863  5864     9 
 5862  5860  5863  5865     9 
 5862  5860  5863  5866     9 
 5860  5863  5866  5867     9 
 5860  5863  5866  5868     9 
 5860  5863  5866  5869     9 
 5864  5863  5866  5867     9 
 5864  5863  5866  5868     9 
 5864  5863  5866  5869     9 
 5865  5863  5866  5867     9 
 5865  5863  5866  5868     9 
 5865  5863  5866  5869     9 
 5863  5866  5869  5870     9 
 5863  5866  5869  5871     9 
 5863  5866  5869  5872     9 
 5867  5866  5869  5870     9 
 5867  5866  5869  5871     9 
 5867  5866  5869  5872     9 
 5868  5866  5869  5870     9 
 5868  5866  5869  5871     9 
 5868  5866  5869  5872     9 
 5866  5869  5872  5873     9 
 5866  5869  5872  5874     9 
 5866  5869  5872  5875     9 
 5870  5869  5872  5873     9 
 5870  5869  5872  5874     9 
 5870  5869  5872  5875     9 
 5871  5869  5872  5873     9 
 5871  5869  5872  5874     9 
 5871  5869  5872  5875     9 
 5869  5872  5875  5876     9 
 5869  5872  5875  5877     9 
 5869  5872  5875  5878     9 
 5873  5872  5875  5876     9 
 5873  5872  5875  5877     9 
 5873  5872  5875  5878     9 
 5874  5872  5875  5876     9 
 5874  5872  5875  5877     9 
 5874  5872  5875  5878     9 
 5872  5875  5878  5879     9 
 5872  5875  5878  5880     9 
 5872  5875  5878  5881     9 
 5876  5875  5878  5879     9 
 5876  5875  5878  5880     9 
 5876  5875  5878  5881     9 
 5877  5875  5878  5879     9 
 5877  5875  5878  5880     9 
 5877  5875  5878  5881     9 
 5875  5878  5881  5882     9 
 5875  5878  5881  5883     9 
 5875  5878  5881  5884     9 
 5879  5878  5881  5882     9 
 5879  5878  5881  5883     9 
 5879  5878  5881  5884     9 
 5880  5878  5881  5882     9 
 5880  5878  5881  5883     9 
 5880  5878  5881  5884     9 
 5878  5881  5884  5885     9 
 5878  5881  5884  5886     9 
 5878  5881  5884  5887     9 
 5882  5881  5884  5885     9 
 5882  5881  5884  5886     9 
 5882  5881  5884  5887     9 
 5883  5881  5884  5885     9 
 5883  5881  5884  5886     9 
 5883  5881  5884  5887     9 
 5881  5884  5887  5888     9 
 5881  5884  5887  5889     9 
 5881  5884  5887  5890     9 
 5885  5884  5887  5888     9 
 5885  5884  5887  5889     9 
 5885  5884  5887  5890     9 
 5886  5884  5887  5888     9 
 5886  5884  5887  5889     9 
 5886  5884  5887  5890     9 
 5884  5887  5890  5891     9 
 5884  5887  5890  5892     9 
 5884  5887  5890  5893     9 
 5888  5887  5890  5891     9 
 5888  5887  5890  5892     9 
 5888  5887  5890  5893     9 
 5889  5887  5890  5891     9 
 5889  5887  5890  5892     9 
 5889  5887  5890  5893     9 
 5887  5890  5893  5894     9 
 5887  5890  5893  5895     9 
 5887  5890  5893  5896     9 
 5891  5890  5893  5894     9 
 5891  5890  5893  5895     9 
 5891  5890  5893  5896     9 
 5892  5890  5893  5894     9 
 5892  5890  5893  5895     9 
 5892  5890  5893  5896     9 
 5901  5897  5898  5899     9 
 5901  5897  5898  5900     9 
 5901  5897  5898  5913     9 
 5905  5897  5898  5899     9 
 5905  5897  5898  5900     9 
 5905  5897  5898  5913     9 
 5909  5897  5898  5899     9 
 5909  5897  5898  5900     9 
 5909  5897  5898  5913     9 
 5898  5897  5901  5902     9 
 5898  5897  5901  5903     9 
 5898  5897  5901  5904     9 
 5905  5897  5901  5902     9 
 5905  5897  5901  5903     9 
 5905  5897  5901  5904     9 
 5909  5897  5901  5902     9 
 5909  5897  5901  5903     9 
 5909  5897  5901  5904     9 
 5898  5897  5905  5906     9 
 5898  5897  5905  5907     9 
 5898  5897  5905  5908     9 
 5901  5897  5905  5906     9 
 5901  5897  5905  5907     9 
 5901  5897  5905  5908     9 
 5909  5897  5905  5906     9 
 5909  5897  5905  5907     9 
 5909  5897  5905  5908     9 
 5898  5897  5909  5910     9 
 5898  5897  5909  5911     9 
 5898  5897  5909  5912     9 
 5901  5897  5909  5910     9 
 5901  5897  5909  5911     9 
 5901  5897  5909  5912     9 
 5905  5897  5909  5910     9 
 5905  5897  5909  5911     9 
 5905  5897  5909  5912     9 
 5897  5898  5913  5914     9 
 5897  5898  5913  5915     9 
 5897  5898  5913  5919     9 
 5899  5898  5913  5914     9 
 5899  5898  5913  5915     9 
 5899  5898  5913  5919     9 
 5900  5898  5913  5914     9 
 5900  5898  5913  5915     9 
 5900  5898  5913  5919     9 
 5898  5913  5919  5916     9 
 5914  5913  5919  5916     9 
 5915  5913  5919  5916     9 
 5917  5916  5919  5913     9 
 5918  5916  5919  5913     9 
 5920  5916  5919  5913     9 
 5917  5916  5920  5921     9 
 5918  5916  5920  5921     9 
 5919  5916  5920  5921     9 
 5916  5920  5921  5922     9 
 5916  5920  5921  5923     9 
 5916  5920  5921  5924     9 
 5920  5921  5924  5925     9 
 5920  5921  5924  5926     9 
 5920  5921  5924  5932     9 
 5922  5921  5924  5925     9 
 5922  5921  5924  5926     9 
 5922  5921  5924  5932     9 
 5923  5921  5924  5925     9 
 5923  5921  5924  5926     9 
 5923  5921  5924  5932     9 
 5921  5924  5926  5927     9 
 5925  5924  5926  5927     9 
 5932  5924  5926  5927     9 
 5921  5924  5932  5933     9 
 5921  5924  5932  5934     9 
 5921  5924  5932  5935     9 
 5925  5924  5932  5933     9 
 5925  5924  5932  5934     9 
 5925  5924  5932  5935     9 
 5926  5924  5932  5933     9 
 5926  5924  5932  5934     9 
 5926  5924  5932  5935     9 
 5924  5926  5927  5928     9 
 5924  5926  5927  5929     9 
 5926  5927  5929  5930     9 
 5926  5927  5929  5931     9 
 5926  5927  5929  5941     9 
 5928  5927  5929  5930     9 
 5928  5927  5929  5931     9 
 5928  5927  5929  5941     9 
 5927  5929  5941  5942     9 
 5927  5929  5941  5943     9 
 5927  5929  5941  5944     9 
 5930  5929  5941  5942     9 
 5930  5929  5941  5943     9 
 5930  5929  5941  5944     9 
 5931  5929  5941  5942     9 
 5931  5929  5941  5943     9 
 5931  5929  5941  5944     9 
 5924  5932  5935  5936     9 
 5933  5932  5935  5936     9 
 5934  5932  5935  5936     9 
 5932  5935  5936  5937     9 
 5932  5935  5936  5938     9 
 5935  5936  5938  5939     9 
 5935  5936  5938  5940     9 
 5935  5936  5938  5988     9 
 5937  5936  5938  5939     9 
 5937  5936  5938  5940     9 
 5937  5936  5938  5988     9 
 5936  5938  5988  5989     9 
 5936  5938  5988  5990     9 
 5936  5938  5988  5991     9 
 5939  5938  5988  5989     9 
 5939  5938  5988  5990     9 
 5939  5938  5988  5991     9 
 5940  5938  5988  5989     9 
 5940  5938  5988  5990     9 
 5940  5938  5988  5991     9 
 5929  5941  5944  5945     9 
 5929  5941  5944  5946     9 
 5929  5941  5944  5947     9 
 5942  5941  5944  5945     9 
 5942  5941  5944  5946     9 
 5942  5941  5944  5947     9 
 5943  5941  5944  5945     9 
 5943  5941  5944  5946     9 
 5943  5941  5944  5947     9 
 5941  5944  5947  5948     9 
 5941  5944  5947  5949     9 
 5941  5944  5947  5950     9 
 5945  5944  5947  5948     9 
 5945  5944  5947  5949     9 
 5945  5944  5947  5950     9 
 5946  5944  5947  5948     9 
 5946  5944  5947  5949     9 
 5946  5944  5947  5950     9 
 5944  5947  5950  5951     9 
 5944  5947  5950  5952     9 
 5944  5947  5950  5953     9 
 5948  5947  5950  5951     9 
 5948  5947  5950  5952     9 
 5948  5947  5950  5953     9 
 5949  5947  5950  5951     9 
 5949  5947  5950  5952     9 
 5949  5947  5950  5953     9 
 5947  5950  5953  5954     9 
 5947  5950  5953  5955     9 
 5947  5950  5953  5956     9 
 5951  5950  5953  5954     9 
 5951  5950  5953  5955     9 
 5951  5950  5953  5956     9 
 5952  5950  5953  5954     9 
 5952  5950  5953  5955     9 
 5952  5950  5953  5956     9 
 5950  5953  5956  5957     9 
 5950  5953  5956  5958     9 
 5950  5953  5956  5959     9 
 5954  5953  5956  5957     9 
 5954  5953  5956  5958     9 
 5954  5953  5956  5959     9 
 5955  5953  5956  5957     9 
 5955  5953  5956  5958     9 
 5955  5953  5956  5959     9 
 5953  5956  5959  5960     9 
 5953  5956  5959  5961     9 
 5957  5956  5959  5960     9 
 5957  5956  5959  5961     9 
 5958  5956  5959  5960     9 
 5958  5956  5959  5961     9 
 5956  5959  5961  5962     9 
 5956  5959  5961  5963     9 
 5960  5959  5961  5962     9 
 5960  5959  5961  5963     9 
 5959  5961  5963  5964     9 
 5959  5961  5963  5965     9 
 5959  5961  5963  5966     9 
 5962  5961  5963  5964     9 
 5962  5961  5963  5965     9 
 5962  5961  5963  5966     9 
 5961  5963  5966  5967     9 
 5961  5963  5966  5968     9 
 5961  5963  5966  5969     9 
 5964  5963  5966  5967     9 
 5964  5963  5966  5968     9 
 5964  5963  5966  5969     9 
 5965  5963  5966  5967     9 
 5965  5963  5966  5968     9 
 5965  5963  5966  5969     9 
 5963  5966  5969  5970     9 
 5963  5966  5969  5971     9 
 5963  5966  5969  5972     9 
 5967  5966  5969  5970     9 
 5967  5966  5969  5971     9 
 5967  5966  5969  5972     9 
 5968  5966  5969  5970     9 
 5968  5966  5969  5971     9 
 5968  5966  5969  5972     9 
 5966  5969  5972  5973     9 
 5966  5969  5972  5974     9 
 5966  5969  5972  5975     9 
 5970  5969  5972  5973     9 
 5970  5969  5972  5974     9 
 5970  5969  5972  5975     9 
 5971  5969  5972  5973     9 
 5971  5969  5972  5974     9 
 5971  5969  5972  5975     9 
 5969  5972  5975  5976     9 
 5969  5972  5975  5977     9 
 5969  5972  5975  5978     9 
 5973  5972  5975  5976     9 
 5973  5972  5975  5977     9 
 5973  5972  5975  5978     9 
 5974  5972  5975  5976     9 
 5974  5972  5975  5977     9 
 5974  5972  5975  5978     9 
 5972  5975  5978  5979     9 
 5972  5975  5978  5980     9 
 5972  5975  5978  5981     9 
 5976  5975  5978  5979     9 
 5976  5975  5978  5980     9 
 5976  5975  5978  5981     9 
 5977  5975  5978  5979     9 
 5977  5975  5978  5980     9 
 5977  5975  5978  5981     9 
 5975  5978  5981  5982     9 
 5975  5978  5981  5983     9 
 5975  5978  5981  5984     9 
 5979  5978  5981  5982     9 
 5979  5978  5981  5983     9 
 5979  5978  5981  5984     9 
 5980  5978  5981  5982     9 
 5980  5978  5981  5983     9 
 5980  5978  5981  5984     9 
 5978  5981  5984  5985     9 
 5978  5981  5984  5986     9 
 5978  5981  5984  5987     9 
 5982  5981  5984  5985     9 
 5982  5981  5984  5986     9 
 5982  5981  5984  5987     9 
 5983  5981  5984  5985     9 
 5983  5981  5984  5986     9 
 5983  5981  5984  5987     9 
 5938  5988  5991  5992     9 
 5938  5988  5991  5993     9 
 5938  5988  5991  5994     9 
 5989  5988  5991  5992     9 
 5989  5988  5991  5993     9 
 5989  5988  5991  5994     9 
 5990  5988  5991  5992     9 
 5990  5988  5991  5993     9 
 5990  5988  5991  5994     9 
 5988  5991  5994  5995     9 
 5988  5991  5994  5996     9 
 5988  5991  5994  5997     9 
 5992  5991  5994  5995     9 
 5992  5991  5994  5996     9 
 5992  5991  5994  5997     9 
 5993  5991  5994  5995     9 
 5993  5991  5994  5996     9 
 5993  5991  5994  5997     9 
 5991  5994  5997  5998     9 
 5991  5994  5997  5999     9 
 5991  5994  5997  6000     9 
 5995  5994  5997  5998     9 
 5995  5994  5997  5999     9 
 5995  5994  5997  6000     9 
 5996  5994  5997  5998     9 
 5996  5994  5997  5999     9 
 5996  5994  5997  6000     9 
 5994  5997  6000  6001     9 
 5994  5997  6000  6002     9 
 5994  5997  6000  6003     9 
 5998  5997  6000  6001     9 
 5998  5997  6000  6002     9 
 5998  5997  6000  6003     9 
 5999  5997  6000  6001     9 
 5999  5997  6000  6002     9 
 5999  5997  6000  6003     9 
 5997  6000  6003  6004     9 
 5997  6000  6003  6005     9 
 5997  6000  6003  6006     9 
 6001  6000  6003  6004     9 
 6001  6000  6003  6005     9 
 6001  6000  6003  6006     9 
 6002  6000  6003  6004     9 
 6002  6000  6003  6005     9 
 6002  6000  6003  6006     9 
 6000  6003  6006  6007     9 
 6000  6003  6006  6008     9 
 6000  6003  6006  6009     9 
 6004  6003  6006  6007     9 
 6004  6003  6006  6008     9 
 6004  6003  6006  6009     9 
 6005  6003  6006  6007     9 
 6005  6003  6006  6008     9 
 6005  6003  6006  6009     9 
 6003  6006  6009  6010     9 
 6003  6006  6009  6011     9 
 6003  6006  6009  6012     9 
 6007  6006  6009  6010     9 
 6007  6006  6009  6011     9 
 6007  6006  6009  6012     9 
 6008  6006  6009  6010     9 
 6008  6006  6009  6011     9 
 6008  6006  6009  6012     9 
 6006  6009  6012  6013     9 
 6006  6009  6012  6014     9 
 6006  6009  6012  6015     9 
 6010  6009  6012  6013     9 
 6010  6009  6012  6014     9 
 6010  6009  6012  6015     9 
 6011  6009  6012  6013     9 
 6011  6009  6012  6014     9 
 6011  6009  6012  6015     9 
 6009  6012  6015  6016     9 
 6009  6012  6015  6017     9 
 6009  6012  6015  6018     9 
 6013  6012  6015  6016     9 
 6013  6012  6015  6017     9 
 6013  6012  6015  6018     9 
 6014  6012  6015  6016     9 
 6014  6012  6015  6017     9 
 6014  6012  6015  6018     9 
 6012  6015  6018  6019     9 
 6012  6015  6018  6020     9 
 6012  6015  6018  6021     9 
 6016  6015  6018  6019     9 
 6016  6015  6018  6020     9 
 6016  6015  6018  6021     9 
 6017  6015  6018  6019     9 
 6017  6015  6018  6020     9 
 6017  6015  6018  6021     9 
 6015  6018  6021  6022     9 
 6015  6018  6021  6023     9 
 6015  6018  6021  6024     9 
 6019  6018  6021  6022     9 
 6019  6018  6021  6023     9 
 6019  6018  6021  6024     9 
 6020  6018  6021  6022     9 
 6020  6018  6021  6023     9 
 6020  6018  6021  6024     9 
 6018  6021  6024  6025     9 
 6018  6021  6024  6026     9 
 6018  6021  6024  6027     9 
 6022  6021  6024  6025     9 
 6022  6021  6024  6026     9 
 6022  6021  6024  6027     9 
 6023  6021  6024  6025     9 
 6023  6021  6024  6026     9 
 6023  6021  6024  6027     9 
 6021  6024  6027  6028     9 
 6021  6024  6027  6029     9 
 6021  6024  6027  6030     9 
 6025  6024  6027  6028     9 
 6025  6024  6027  6029     9 
 6025  6024  6027  6030     9 
 6026  6024  6027  6028     9 
 6026  6024  6027  6029     9 
 6026  6024  6027  6030     9 
 6035  6031  6032  6033     9 
 6035  6031  6032  6034     9 
 6035  6031  6032  6047     9 
 6039  6031  6032  6033     9 
 6039  6031  6032  6034     9 
 6039  6031  6032  6047     9 
 6043  6031  6032  6033     9 
 6043  6031  6032  6034     9 
 6043  6031  6032  6047     9 
 6032  6031  6035  6036     9 
 6032  6031  6035  6037     9 
 6032  6031  6035  6038     9 
 6039  6031  6035  6036     9 
 6039  6031  6035  6037     9 
 6039  6031  6035  6038     9 
 6043  6031  6035  6036     9 
 6043  6031  6035  6037     9 
 6043  6031  6035  6038     9 
 6032  6031  6039  6040     9 
 6032  6031  6039  6041     9 
 6032  6031  6039  6042     9 
 6035  6031  6039  6040     9 
 6035  6031  6039  6041     9 
 6035  6031  6039  6042     9 
 6043  6031  6039  6040     9 
 6043  6031  6039  6041     9 
 6043  6031  6039  6042     9 
 6032  6031  6043  6044     9 
 6032  6031  6043  6045     9 
 6032  6031  6043  6046     9 
 6035  6031  6043  6044     9 
 6035  6031  6043  6045     9 
 6035  6031  6043  6046     9 
 6039  6031  6043  6044     9 
 6039  6031  6043  6045     9 
 6039  6031  6043  6046     9 
 6031  6032  6047  6048     9 
 6031  6032  6047  6049     9 
 6031  6032  6047  6053     9 
 6033  6032  6047  6048     9 
 6033  6032  6047  6049     9 
 6033  6032  6047  6053     9 
 6034  6032  6047  6048     9 
 6034  6032  6047  6049     9 
 6034  6032  6047  6053     9 
 6032  6047  6053  6050     9 
 6048  6047  6053  6050     9 
 6049  6047  6053  6050     9 
 6051  6050  6053  6047     9 
 6052  6050  6053  6047     9 
 6054  6050  6053  6047     9 
 6051  6050  6054  6055     9 
 6052  6050  6054  6055     9 
 6053  6050  6054  6055     9 
 6050  6054  6055  6056     9 
 6050  6054  6055  6057     9 
 6050  6054  6055  6058     9 
 6054  6055  6058  6059     9 
 6054  6055  6058  6060     9 
 6054  6055  6058  6066     9 
 6056  6055  6058  6059     9 
 6056  6055  6058  6060     9 
 6056  6055  6058  6066     9 
 6057  6055  6058  6059     9 
 6057  6055  6058  6060     9 
 6057  6055  6058  6066     9 
 6055  6058  6060  6061     9 
 6059  6058  6060  6061     9 
 6066  6058  6060  6061     9 
 6055  6058  6066  6067     9 
 6055  6058  6066  6068     9 
 6055  6058  6066  6069     9 
 6059  6058  6066  6067     9 
 6059  6058  6066  6068     9 
 6059  6058  6066  6069     9 
 6060  6058  6066  6067     9 
 6060  6058  6066  6068     9 
 6060  6058  6066  6069     9 
 6058  6060  6061  6062     9 
 6058  6060  6061  6063     9 
 6060  6061  6063  6064     9 
 6060  6061  6063  6065     9 
 6060  6061  6063  6075     9 
 6062  6061  6063  6064     9 
 6062  6061  6063  6065     9 
 6062  6061  6063  6075     9 
 6061  6063  6075  6076     9 
 6061  6063  6075  6077     9 
 6061  6063  6075  6078     9 
 6064  6063  6075  6076     9 
 6064  6063  6075  6077     9 
 6064  6063  6075  6078     9 
 6065  6063  6075  6076     9 
 6065  6063  6075  6077     9 
 6065  6063  6075  6078     9 
 6058  6066  6069  6070     9 
 6067  6066  6069  6070     9 
 6068  6066  6069  6070     9 
 6066  6069  6070  6071     9 
 6066  6069  6070  6072     9 
 6069  6070  6072  6073     9 
 6069  6070  6072  6074     9 
 6069  6070  6072  6122     9 
 6071  6070  6072  6073     9 
 6071  6070  6072  6074     9 
 6071  6070  6072  6122     9 
 6070  6072  6122  6123     9 
 6070  6072  6122  6124     9 
 6070  6072  6122  6125     9 
 6073  6072  6122  6123     9 
 6073  6072  6122  6124     9 
 6073  6072  6122  6125     9 
 6074  6072  6122  6123     9 
 6074  6072  6122  6124     9 
 6074  6072  6122  6125     9 
 6063  6075  6078  6079     9 
 6063  6075  6078  6080     9 
 6063  6075  6078  6081     9 
 6076  6075  6078  6079     9 
 6076  6075  6078  6080     9 
 6076  6075  6078  6081     9 
 6077  6075  6078  6079     9 
 6077  6075  6078  6080     9 
 6077  6075  6078  6081     9 
 6075  6078  6081  6082     9 
 6075  6078  6081  6083     9 
 6075  6078  6081  6084     9 
 6079  6078  6081  6082     9 
 6079  6078  6081  6083     9 
 6079  6078  6081  6084     9 
 6080  6078  6081  6082     9 
 6080  6078  6081  6083     9 
 6080  6078  6081  6084     9 
 6078  6081  6084  6085     9 
 6078  6081  6084  6086     9 
 6078  6081  6084  6087     9 
 6082  6081  6084  6085     9 
 6082  6081  6084  6086     9 
 6082  6081  6084  6087     9 
 6083  6081  6084  6085     9 
 6083  6081  6084  6086     9 
 6083  6081  6084  6087     9 
 6081  6084  6087  6088     9 
 6081  6084  6087  6089     9 
 6081  6084  6087  6090     9 
 6085  6084  6087  6088     9 
 6085  6084  6087  6089     9 
 6085  6084  6087  6090     9 
 6086  6084  6087  6088     9 
 6086  6084  6087  6089     9 
 6086  6084  6087  6090     9 
 6084  6087  6090  6091     9 
 6084  6087  6090  6092     9 
 6084  6087  6090  6093     9 
 6088  6087  6090  6091     9 
 6088  6087  6090  6092     9 
 6088  6087  6090  6093     9 
 6089  6087  6090  6091     9 
 6089  6087  6090  6092     9 
 6089  6087  6090  6093     9 
 6087  6090  6093  6094     9 
 6087  6090  6093  6095     9 
 6091  6090  6093  6094     9 
 6091  6090  6093  6095     9 
 6092  6090  6093  6094     9 
 6092  6090  6093  6095     9 
 6090  6093  6095  6096     9 
 6090  6093  6095  6097     9 
 6094  6093  6095  6096     9 
 6094  6093  6095  6097     9 
 6093  6095  6097  6098     9 
 6093  6095  6097  6099     9 
 6093  6095  6097  6100     9 
 6096  6095  6097  6098     9 
 6096  6095  6097  6099     9 
 6096  6095  6097  6100     9 
 6095  6097  6100  6101     9 
 6095  6097  6100  6102     9 
 6095  6097  6100  6103     9 
 6098  6097  6100  6101     9 
 6098  6097  6100  6102     9 
 6098  6097  6100  6103     9 
 6099  6097  6100  6101     9 
 6099  6097  6100  6102     9 
 6099  6097  6100  6103     9 
 6097  6100  6103  6104     9 
 6097  6100  6103  6105     9 
 6097  6100  6103  6106     9 
 6101  6100  6103  6104     9 
 6101  6100  6103  6105     9 
 6101  6100  6103  6106     9 
 6102  6100  6103  6104     9 
 6102  6100  6103  6105     9 
 6102  6100  6103  6106     9 
 6100  6103  6106  6107     9 
 6100  6103  6106  6108     9 
 6100  6103  6106  6109     9 
 6104  6103  6106  6107     9 
 6104  6103  6106  6108     9 
 6104  6103  6106  6109     9 
 6105  6103  6106  6107     9 
 6105  6103  6106  6108     9 
 6105  6103  6106  6109     9 
 6103  6106  6109  6110     9 
 6103  6106  6109  6111     9 
 6103  6106  6109  6112     9 
 6107  6106  6109  6110     9 
 6107  6106  6109  6111     9 
 6107  6106  6109  6112     9 
 6108  6106  6109  6110     9 
 6108  6106  6109  6111     9 
 6108  6106  6109  6112     9 
 6106  6109  6112  6113     9 
 6106  6109  6112  6114     9 
 6106  6109  6112  6115     9 
 6110  6109  6112  6113     9 
 6110  6109  6112  6114     9 
 6110  6109  6112  6115     9 
 6111  6109  6112  6113     9 
 6111  6109  6112  6114     9 
 6111  6109  6112  6115     9 
 6109  6112  6115  6116     9 
 6109  6112  6115  6117     9 
 6109  6112  6115  6118     9 
 6113  6112  6115  6116     9 
 6113  6112  6115  6117     9 
 6113  6112  6115  6118     9 
 6114  6112  6115  6116     9 
 6114  6112  6115  6117     9 
 6114  6112  6115  6118     9 
 6112  6115  6118  6119     9 
 6112  6115  6118  6120     9 
 6112  6115  6118  6121     9 
 6116  6115  6118  6119     9 
 6116  6115  6118  6120     9 
 6116  6115  6118  6121     9 
 6117  6115  6118  6119     9 
 6117  6115  6118  6120     9 
 6117  6115  6118  6121     9 
 6072  6122  6125  6126     9 
 6072  6122  6125  6127     9 
 6072  6122  6125  6128     9 
 6123  6122  6125  6126     9 
 6123  6122  6125  6127     9 
 6123  6122  6125  6128     9 
 6124  6122  6125  6126     9 
 6124  6122  6125  6127     9 
 6124  6122  6125  6128     9 
 6122  6125  6128  6129     9 
 6122  6125  6128  6130     9 
 6122  6125  6128  6131     9 
 6126  6125  6128  6129     9 
 6126  6125  6128  6130     9 
 6126  6125  6128  6131     9 
 6127  6125  6128  6129     9 
 6127  6125  6128  6130     9 
 6127  6125  6128  6131     9 
 6125  6128  6131  6132     9 
 6125  6128  6131  6133     9 
 6125  6128  6131  6134     9 
 6129  6128  6131  6132     9 
 6129  6128  6131  6133     9 
 6129  6128  6131  6134     9 
 6130  6128  6131  6132     9 
 6130  6128  6131  6133     9 
 6130  6128  6131  6134     9 
 6128  6131  6134  6135     9 
 6128  6131  6134  6136     9 
 6128  6131  6134  6137     9 
 6132  6131  6134  6135     9 
 6132  6131  6134  6136     9 
 6132  6131  6134  6137     9 
 6133  6131  6134  6135     9 
 6133  6131  6134  6136     9 
 6133  6131  6134  6137     9 
 6131  6134  6137  6138     9 
 6131  6134  6137  6139     9 
 6131  6134  6137  6140     9 
 6135  6134  6137  6138     9 
 6135  6134  6137  6139     9 
 6135  6134  6137  6140     9 
 6136  6134  6137  6138     9 
 6136  6134  6137  6139     9 
 6136  6134  6137  6140     9 
 6134  6137  6140  6141     9 
 6134  6137  6140  6142     9 
 6134  6137  6140  6143     9 
 6138  6137  6140  6141     9 
 6138  6137  6140  6142     9 
 6138  6137  6140  6143     9 
 6139  6137  6140  6141     9 
 6139  6137  6140  6142     9 
 6139  6137  6140  6143     9 
 6137  6140  6143  6144     9 
 6137  6140  6143  6145     9 
 6137  6140  6143  6146     9 
 6141  6140  6143  6144     9 
 6141  6140  6143  6145     9 
 6141  6140  6143  6146     9 
 6142  6140  6143  6144     9 
 6142  6140  6143  6145     9 
 6142  6140  6143  6146     9 
 6140  6143  6146  6147     9 
 6140  6143  6146  6148     9 
 6140  6143  6146  6149     9 
 6144  6143  6146  6147     9 
 6144  6143  6146  6148     9 
 6144  6143  6146  6149     9 
 6145  6143  6146  6147     9 
 6145  6143  6146  6148     9 
 6145  6143  6146  6149     9 
 6143  6146  6149  6150     9 
 6143  6146  6149  6151     9 
 6143  6146  6149  6152     9 
 6147  6146  6149  6150     9 
 6147  6146  6149  6151     9 
 6147  6146  6149  6152     9 
 6148  6146  6149  6150     9 
 6148  6146  6149  6151     9 
 6148  6146  6149  6152     9 
 6146  6149  6152  6153     9 
 6146  6149  6152  6154     9 
 6146  6149  6152  6155     9 
 6150  6149  6152  6153     9 
 6150  6149  6152  6154     9 
 6150  6149  6152  6155     9 
 6151  6149  6152  6153     9 
 6151  6149  6152  6154     9 
 6151  6149  6152  6155     9 
 6149  6152  6155  6156     9 
 6149  6152  6155  6157     9 
 6149  6152  6155  6158     9 
 6153  6152  6155  6156     9 
 6153  6152  6155  6157     9 
 6153  6152  6155  6158     9 
 6154  6152  6155  6156     9 
 6154  6152  6155  6157     9 
 6154  6152  6155  6158     9 
 6152  6155  6158  6159     9 
 6152  6155  6158  6160     9 
 6152  6155  6158  6161     9 
 6156  6155  6158  6159     9 
 6156  6155  6158  6160     9 
 6156  6155  6158  6161     9 
 6157  6155  6158  6159     9 
 6157  6155  6158  6160     9 
 6157  6155  6158  6161     9 
 6155  6158  6161  6162     9 
 6155  6158  6161  6163     9 
 6155  6158  6161  6164     9 
 6159  6158  6161  6162     9 
 6159  6158  6161  6163     9 
 6159  6158  6161  6164     9 
 6160  6158  6161  6162     9 
 6160  6158  6161  6163     9 
 6160  6158  6161  6164     9 
 6169  6165  6166  6167     9 
 6169  6165  6166  6168     9 
 6169  6165  6166  6181     9 
 6173  6165  6166  6167     9 
 6173  6165  6166  6168     9 
 6173  6165  6166  6181     9 
 6177  6165  6166  6167     9 
 6177  6165  6166  6168     9 
 6177  6165  6166  6181     9 
 6166  6165  6169  6170     9 
 6166  6165  6169  6171     9 
 6166  6165  6169  6172     9 
 6173  6165  6169  6170     9 
 6173  6165  6169  6171     9 
 6173  6165  6169  6172     9 
 6177  6165  6169  6170     9 
 6177  6165  6169  6171     9 
 6177  6165  6169  6172     9 
 6166  6165  6173  6174     9 
 6166  6165  6173  6175     9 
 6166  6165  6173  6176     9 
 6169  6165  6173  6174     9 
 6169  6165  6173  6175     9 
 6169  6165  6173  6176     9 
 6177  6165  6173  6174     9 
 6177  6165  6173  6175     9 
 6177  6165  6173  6176     9 
 6166  6165  6177  6178     9 
 6166  6165  6177  6179     9 
 6166  6165  6177  6180     9 
 6169  6165  6177  6178     9 
 6169  6165  6177  6179     9 
 6169  6165  6177  6180     9 
 6173  6165  6177  6178     9 
 6173  6165  6177  6179     9 
 6173  6165  6177  6180     9 
 6165  6166  6181  6182     9 
 6165  6166  6181  6183     9 
 6165  6166  6181  6187     9 
 6167  6166  6181  6182     9 
 6167  6166  6181  6183     9 
 6167  6166  6181  6187     9 
 6168  6166  6181  6182     9 
 6168  6166  6181  6183     9 
 6168  6166  6181  6187     9 
 6166  6181  6187  6184     9 
 6182  6181  6187  6184     9 
 6183  6181  6187  6184     9 
 6185  6184  6187  6181     9 
 6186  6184  6187  6181     9 
 6188  6184  6187  6181     9 
 6185  6184  6188  6189     9 
 6186  6184  6188  6189     9 
 6187  6184  6188  6189     9 
 6184  6188  6189  6190     9 
 6184  6188  6189  6191     9 
 6184  6188  6189  6192     9 
 6188  6189  6192  6193     9 
 6188  6189  6192  6194     9 
 6188  6189  6192  6200     9 
 6190  6189  6192  6193     9 
 6190  6189  6192  6194     9 
 6190  6189  6192  6200     9 
 6191  6189  6192  6193     9 
 6191  6189  6192  6194     9 
 6191  6189  6192  6200     9 
 6189  6192  6194  6195     9 
 6193  6192  6194  6195     9 
 6200  6192  6194  6195     9 
 6189  6192  6200  6201     9 
 6189  6192  6200  6202     9 
 6189  6192  6200  6203     9 
 6193  6192  6200  6201     9 
 6193  6192  6200  6202     9 
 6193  6192  6200  6203     9 
 6194  6192  6200  6201     9 
 6194  6192  6200  6202     9 
 6194  6192  6200  6203     9 
 6192  6194  6195  6196     9 
 6192  6194  6195  6197     9 
 6194  6195  6197  6198     9 
 6194  6195  6197  6199     9 
 6194  6195  6197  6209     9 
 6196  6195  6197  6198     9 
 6196  6195  6197  6199     9 
 6196  6195  6197  6209     9 
 6195  6197  6209  6210     9 
 6195  6197  6209  6211     9 
 6195  6197  6209  6212     9 
 6198  6197  6209  6210     9 
 6198  6197  6209  6211     9 
 6198  6197  6209  6212     9 
 6199  6197  6209  6210     9 
 6199  6197  6209  6211     9 
 6199  6197  6209  6212     9 
 6192  6200  6203  6204     9 
 6201  6200  6203  6204     9 
 6202  6200  6203  6204     9 
 6200  6203  6204  6205     9 
 6200  6203  6204  6206     9 
 6203  6204  6206  6207     9 
 6203  6204  6206  6208     9 
 6203  6204  6206  6256     9 
 6205  6204  6206  6207     9 
 6205  6204  6206  6208     9 
 6205  6204  6206  6256     9 
 6204  6206  6256  6257     9 
 6204  6206  6256  6258     9 
 6204  6206  6256  6259     9 
 6207  6206  6256  6257     9 
 6207  6206  6256  6258     9 
 6207  6206  6256  6259     9 
 6208  6206  6256  6257     9 
 6208  6206  6256  6258     9 
 6208  6206  6256  6259     9 
 6197  6209  6212  6213     9 
 6197  6209  6212  6214     9 
 6197  6209  6212  6215     9 
 6210  6209  6212  6213     9 
 6210  6209  6212  6214     9 
 6210  6209  6212  6215     9 
 6211  6209  6212  6213     9 
 6211  6209  6212  6214     9 
 6211  6209  6212  6215     9 
 6209  6212  6215  6216     9 
 6209  6212  6215  6217     9 
 6209  6212  6215  6218     9 
 6213  6212  6215  6216     9 
 6213  6212  6215  6217     9 
 6213  6212  6215  6218     9 
 6214  6212  6215  6216     9 
 6214  6212  6215  6217     9 
 6214  6212  6215  6218     9 
 6212  6215  6218  6219     9 
 6212  6215  6218  6220     9 
 6212  6215  6218  6221     9 
 6216  6215  6218  6219     9 
 6216  6215  6218  6220     9 
 6216  6215  6218  6221     9 
 6217  6215  6218  6219     9 
 6217  6215  6218  6220     9 
 6217  6215  6218  6221     9 
 6215  6218  6221  6222     9 
 6215  6218  6221  6223     9 
 6215  6218  6221  6224     9 
 6219  6218  6221  6222     9 
 6219  6218  6221  6223     9 
 6219  6218  6221  6224     9 
 6220  6218  6221  6222     9 
 6220  6218  6221  6223     9 
 6220  6218  6221  6224     9 
 6218  6221  6224  6225     9 
 6218  6221  6224  6226     9 
 6218  6221  6224  6227     9 
 6222  6221  6224  6225     9 
 6222  6221  6224  6226     9 
 6222  6221  6224  6227     9 
 6223  6221  6224  6225     9 
 6223  6221  6224  6226     9 
 6223  6221  6224  6227     9 
 6221  6224  6227  6228     9 
 6221  6224  6227  6229     9 
 6225  6224  6227  6228     9 
 6225  6224  6227  6229     9 
 6226  6224  6227  6228     9 
 6226  6224  6227  6229     9 
 6224  6227  6229  6230     9 
 6224  6227  6229  6231     9 
 6228  6227  6229  6230     9 
 6228  6227  6229  6231     9 
 6227  6229  6231  6232     9 
 6227  6229  6231  6233     9 
 6227  6229  6231  6234     9 
 6230  6229  6231  6232     9 
 6230  6229  6231  6233     9 
 6230  6229  6231  6234     9 
 6229  6231  6234  6235     9 
 6229  6231  6234  6236     9 
 6229  6231  6234  6237     9 
 6232  6231  6234  6235     9 
 6232  6231  6234  6236     9 
 6232  6231  6234  6237     9 
 6233  6231  6234  6235     9 
 6233  6231  6234  6236     9 
 6233  6231  6234  6237     9 
 6231  6234  6237  6238     9 
 6231  6234  6237  6239     9 
 6231  6234  6237  6240     9 
 6235  6234  6237  6238     9 
 6235  6234  6237  6239     9 
 6235  6234  6237  6240     9 
 6236  6234  6237  6238     9 
 6236  6234  6237  6239     9 
 6236  6234  6237  6240     9 
 6234  6237  6240  6241     9 
 6234  6237  6240  6242     9 
 6234  6237  6240  6243     9 
 6238  6237  6240  6241     9 
 6238  6237  6240  6242     9 
 6238  6237  6240  6243     9 
 6239  6237  6240  6241     9 
 6239  6237  6240  6242     9 
 6239  6237  6240  6243     9 
 6237  6240  6243  6244     9 
 6237  6240  6243  6245     9 
 6237  6240  6243  6246     9 
 6241  6240  6243  6244     9 
 6241  6240  6243  6245     9 
 6241  6240  6243  6246     9 
 6242  6240  6243  6244     9 
 6242  6240  6243  6245     9 
 6242  6240  6243  6246     9 
 6240  6243  6246  6247     9 
 6240  6243  6246  6248     9 
 6240  6243  6246  6249     9 
 6244  6243  6246  6247     9 
 6244  6243  6246  6248     9 
 6244  6243  6246  6249     9 
 6245  6243  6246  6247     9 
 6245  6243  6246  6248     9 
 6245  6243  6246  6249     9 
 6243  6246  6249  6250     9 
 6243  6246  6249  6251     9 
 6243  6246  6249  6252     9 
 6247  6246  6249  6250     9 
 6247  6246  6249  6251     9 
 6247  6246  6249  6252     9 
 6248  6246  6249  6250     9 
 6248  6246  6249  6251     9 
 6248  6246  6249  6252     9 
 6246  6249  6252  6253     9 
 6246  6249  6252  6254     9 
 6246  6249  6252  6255     9 
 6250  6249  6252  6253     9 
 6250  6249  6252  6254     9 
 6250  6249  6252  6255     9 
 6251  6249  6252  6253     9 
 6251  6249  6252  6254     9 
 6251  6249  6252  6255     9 
 6206  6256  6259  6260     9 
 6206  6256  6259  6261     9 
 6206  6256  6259  6262     9 
 6257  6256  6259  6260     9 
 6257  6256  6259  6261     9 
 6257  6256  6259  6262     9 
 6258  6256  6259  6260     9 
 6258  6256  6259  6261     9 
 6258  6256  6259  6262     9 
 6256  6259  6262  6263     9 
 6256  6259  6262  6264     9 
 6256  6259  6262  6265     9 
 6260  6259  6262  6263     9 
 6260  6259  6262  6264     9 
 6260  6259  6262  6265     9 
 6261  6259  6262  6263     9 
 6261  6259  6262  6264     9 
 6261  6259  6262  6265     9 
 6259  6262  6265  6266     9 
 6259  6262  6265  6267     9 
 6259  6262  6265  6268     9 
 6263  6262  6265  6266     9 
 6263  6262  6265  6267     9 
 6263  6262  6265  6268     9 
 6264  6262  6265  6266     9 
 6264  6262  6265  6267     9 
 6264  6262  6265  6268     9 
 6262  6265  6268  6269     9 
 6262  6265  6268  6270     9 
 6262  6265  6268  6271     9 
 6266  6265  6268  6269     9 
 6266  6265  6268  6270     9 
 6266  6265  6268  6271     9 
 6267  6265  6268  6269     9 
 6267  6265  6268  6270     9 
 6267  6265  6268  6271     9 
 6265  6268  6271  6272     9 
 6265  6268  6271  6273     9 
 6265  6268  6271  6274     9 
 6269  6268  6271  6272     9 
 6269  6268  6271  6273     9 
 6269  6268  6271  6274     9 
 6270  6268  6271  6272     9 
 6270  6268  6271  6273     9 
 6270  6268  6271  6274     9 
 6268  6271  6274  6275     9 
 6268  6271  6274  6276     9 
 6268  6271  6274  6277     9 
 6272  6271  6274  6275     9 
 6272  6271  6274  6276     9 
 6272  6271  6274  6277     9 
 6273  6271  6274  6275     9 
 6273  6271  6274  6276     9 
 6273  6271  6274  6277     9 
 6271  6274  6277  6278     9 
 6271  6274  6277  6279     9 
 6271  6274  6277  6280     9 
 6275  6274  6277  6278     9 
 6275  6274  6277  6279     9 
 6275  6274  6277  6280     9 
 6276  6274  6277  6278     9 
 6276  6274  6277  6279     9 
 6276  6274  6277  6280     9 
 6274  6277  6280  6281     9 
 6274  6277  6280  6282     9 
 6274  6277  6280  6283     9 
 6278  6277  6280  6281     9 
 6278  6277  6280  6282     9 
 6278  6277  6280  6283     9 
 6279  6277  6280  6281     9 
 6279  6277  6280  6282     9 
 6279  6277  6280  6283     9 
 6277  6280  6283  6284     9 
 6277  6280  6283  6285     9 
 6277  6280  6283  6286     9 
 6281  6280  6283  6284     9 
 6281  6280  6283  6285     9 
 6281  6280  6283  6286     9 
 6282  6280  6283  6284     9 
 6282  6280  6283  6285     9 
 6282  6280  6283  6286     9 
 6280  6283  6286  6287     9 
 6280  6283  6286  6288     9 
 6280  6283  6286  6289     9 
 6284  6283  6286  6287     9 
 6284  6283  6286  6288     9 
 6284  6283  6286  6289     9 
 6285  6283  6286  6287     9 
 6285  6283  6286  6288     9 
 6285  6283  6286  6289     9 
 6283  6286  6289  6290     9 
 6283  6286  6289  6291     9 
 6283  6286  6289  6292     9 
 6287  6286  6289  6290     9 
 6287  6286  6289  6291     9 
 6287  6286  6289  6292     9 
 6288  6286  6289  6290     9 
 6288  6286  6289  6291     9 
 6288  6286  6289  6292     9 
 6286  6289  6292  6293     9 
 6286  6289  6292  6294     9 
 6286  6289  6292  6295     9 
 6290  6289  6292  6293     9 
 6290  6289  6292  6294     9 
 6290  6289  6292  6295     9 
 6291  6289  6292  6293     9 
 6291  6289  6292  6294     9 
 6291  6289  6292  6295     9 
 6289  6292  6295  6296     9 
 6289  6292  6295  6297     9 
 6289  6292  6295  6298     9 
 6293  6292  6295  6296     9 
 6293  6292  6295  6297     9 
 6293  6292  6295  6298     9 
 6294  6292  6295  6296     9 
 6294  6292  6295  6297     9 
 6294  6292  6295  6298     9 
 6303  6299  6300  6301     9 
 6303  6299  6300  6302     9 
 6303  6299  6300  6315     9 
 6307  6299  6300  6301     9 
 6307  6299  6300  6302     9 
 6307  6299  6300  6315     9 
 6311  6299  6300  6301     9 
 6311  6299  6300  6302     9 
 6311  6299  6300  6315     9 
 6300  6299  6303  6304     9 
 6300  6299  6303  6305     9 
 6300  6299  6303  6306     9 
 6307  6299  6303  6304     9 
 6307  6299  6303  6305     9 
 6307  6299  6303  6306     9 
 6311  6299  6303  6304     9 
 6311  6299  6303  6305     9 
 6311  6299  6303  6306     9 
 6300  6299  6307  6308     9 
 6300  6299  6307  6309     9 
 6300  6299  6307  6310     9 
 6303  6299  6307  6308     9 
 6303  6299  6307  6309     9 
 6303  6299  6307  6310     9 
 6311  6299  6307  6308     9 
 6311  6299  6307  6309     9 
 6311  6299  6307  6310     9 
 6300  6299  6311  6312     9 
 6300  6299  6311  6313     9 
 6300  6299  6311  6314     9 
 6303  6299  6311  6312     9 
 6303  6299  6311  6313     9 
 6303  6299  6311  6314     9 
 6307  6299  6311  6312     9 
 6307  6299  6311  6313     9 
 6307  6299  6311  6314     9 
 6299  6300  6315  6316     9 
 6299  6300  6315  6317     9 
 6299  6300  6315  6321     9 
 6301  6300  6315  6316     9 
 6301  6300  6315  6317     9 
 6301  6300  6315  6321     9 
 6302  6300  6315  6316     9 
 6302  6300  6315  6317     9 
 6302  6300  6315  6321     9 
 6300  6315  6321  6318     9 
 6316  6315  6321  6318     9 
 6317  6315  6321  6318     9 
 6319  6318  6321  6315     9 
 6320  6318  6321  6315     9 
 6322  6318  6321  6315     9 
 6319  6318  6322  6323     9 
 6320  6318  6322  6323     9 
 6321  6318  6322  6323     9 
 6318  6322  6323  6324     9 
 6318  6322  6323  6325     9 
 6318  6322  6323  6326     9 
 6322  6323  6326  6327     9 
 6322  6323  6326  6328     9 
 6322  6323  6326  6334     9 
 6324  6323  6326  6327     9 
 6324  6323  6326  6328     9 
 6324  6323  6326  6334     9 
 6325  6323  6326  6327     9 
 6325  6323  6326  6328     9 
 6325  6323  6326  6334     9 
 6323  6326  6328  6329     9 
 6327  6326  6328  6329     9 
 6334  6326  6328  6329     9 
 6323  6326  6334  6335     9 
 6323  6326  6334  6336     9 
 6323  6326  6334  6337     9 
 6327  6326  6334  6335     9 
 6327  6326  6334  6336     9 
 6327  6326  6334  6337     9 
 6328  6326  6334  6335     9 
 6328  6326  6334  6336     9 
 6328  6326  6334  6337     9 
 6326  6328  6329  6330     9 
 6326  6328  6329  6331     9 
 6328  6329  6331  6332     9 
 6328  6329  6331  6333     9 
 6328  6329  6331  6343     9 
 6330  6329  6331  6332     9 
 6330  6329  6331  6333     9 
 6330  6329  6331  6343     9 
 6329  6331  6343  6344     9 
 6329  6331  6343  6345     9 
 6329  6331  6343  6346     9 
 6332  6331  6343  6344     9 
 6332  6331  6343  6345     9 
 6332  6331  6343  6346     9 
 6333  6331  6343  6344     9 
 6333  6331  6343  6345     9 
 6333  6331  6343  6346     9 
 6326  6334  6337  6338     9 
 6335  6334  6337  6338     9 
 6336  6334  6337  6338     9 
 6334  6337  6338  6339     9 
 6334  6337  6338  6340     9 
 6337  6338  6340  6341     9 
 6337  6338  6340  6342     9 
 6337  6338  6340  6390     9 
 6339  6338  6340  6341     9 
 6339  6338  6340  6342     9 
 6339  6338  6340  6390     9 
 6338  6340  6390  6391     9 
 6338  6340  6390  6392     9 
 6338  6340  6390  6393     9 
 6341  6340  6390  6391     9 
 6341  6340  6390  6392     9 
 6341  6340  6390  6393     9 
 6342  6340  6390  6391     9 
 6342  6340  6390  6392     9 
 6342  6340  6390  6393     9 
 6331  6343  6346  6347     9 
 6331  6343  6346  6348     9 
 6331  6343  6346  6349     9 
 6344  6343  6346  6347     9 
 6344  6343  6346  6348     9 
 6344  6343  6346  6349     9 
 6345  6343  6346  6347     9 
 6345  6343  6346  6348     9 
 6345  6343  6346  6349     9 
 6343  6346  6349  6350     9 
 6343  6346  6349  6351     9 
 6343  6346  6349  6352     9 
 6347  6346  6349  6350     9 
 6347  6346  6349  6351     9 
 6347  6346  6349  6352     9 
 6348  6346  6349  6350     9 
 6348  6346  6349  6351     9 
 6348  6346  6349  6352     9 
 6346  6349  6352  6353     9 
 6346  6349  6352  6354     9 
 6346  6349  6352  6355     9 
 6350  6349  6352  6353     9 
 6350  6349  6352  6354     9 
 6350  6349  6352  6355     9 
 6351  6349  6352  6353     9 
 6351  6349  6352  6354     9 
 6351  6349  6352  6355     9 
 6349  6352  6355  6356     9 
 6349  6352  6355  6357     9 
 6349  6352  6355  6358     9 
 6353  6352  6355  6356     9 
 6353  6352  6355  6357     9 
 6353  6352  6355  6358     9 
 6354  6352  6355  6356     9 
 6354  6352  6355  6357     9 
 6354  6352  6355  6358     9 
 6352  6355  6358  6359     9 
 6352  6355  6358  6360     9 
 6352  6355  6358  6361     9 
 6356  6355  6358  6359     9 
 6356  6355  6358  6360     9 
 6356  6355  6358  6361     9 
 6357  6355  6358  6359     9 
 6357  6355  6358  6360     9 
 6357  6355  6358  6361     9 
 6355  6358  6361  6362     9 
 6355  6358  6361  6363     9 
 6359  6358  6361  6362     9 
 6359  6358  6361  6363     9 
 6360  6358  6361  6362     9 
 6360  6358  6361  6363     9 
 6358  6361  6363  6364     9 
 6358  6361  6363  6365     9 
 6362  6361  6363  6364     9 
 6362  6361  6363  6365     9 
 6361  6363  6365  6366     9 
 6361  6363  6365  6367     9 
 6361  6363  6365  6368     9 
 6364  6363  6365  6366     9 
 6364  6363  6365  6367     9 
 6364  6363  6365  6368     9 
 6363  6365  6368  6369     9 
 6363  6365  6368  6370     9 
 6363  6365  6368  6371     9 
 6366  6365  6368  6369     9 
 6366  6365  6368  6370     9 
 6366  6365  6368  6371     9 
 6367  6365  6368  6369     9 
 6367  6365  6368  6370     9 
 6367  6365  6368  6371     9 
 6365  6368  6371  6372     9 
 6365  6368  6371  6373     9 
 6365  6368  6371  6374     9 
 6369  6368  6371  6372     9 
 6369  6368  6371  6373     9 
 6369  6368  6371  6374     9 
 6370  6368  6371  6372     9 
 6370  6368  6371  6373     9 
 6370  6368  6371  6374     9 
 6368  6371  6374  6375     9 
 6368  6371  6374  6376     9 
 6368  6371  6374  6377     9 
 6372  6371  6374  6375     9 
 6372  6371  6374  6376     9 
 6372  6371  6374  6377     9 
 6373  6371  6374  6375     9 
 6373  6371  6374  6376     9 
 6373  6371  6374  6377     9 
 6371  6374  6377  6378     9 
 6371  6374  6377  6379     9 
 6371  6374  6377  6380     9 
 6375  6374  6377  6378     9 
 6375  6374  6377  6379     9 
 6375  6374  6377  6380     9 
 6376  6374  6377  6378     9 
 6376  6374  6377  6379     9 
 6376  6374  6377  6380     9 
 6374  6377  6380  6381     9 
 6374  6377  6380  6382     9 
 6374  6377  6380  6383     9 
 6378  6377  6380  6381     9 
 6378  6377  6380  6382     9 
 6378  6377  6380  6383     9 
 6379  6377  6380  6381     9 
 6379  6377  6380  6382     9 
 6379  6377  6380  6383     9 
 6377  6380  6383  6384     9 
 6377  6380  6383  6385     9 
 6377  6380  6383  6386     9 
 6381  6380  6383  6384     9 
 6381  6380  6383  6385     9 
 6381  6380  6383  6386     9 
 6382  6380  6383  6384     9 
 6382  6380  6383  6385     9 
 6382  6380  6383  6386     9 
 6380  6383  6386  6387     9 
 6380  6383  6386  6388     9 
 6380  6383  6386  6389     9 
 6384  6383  6386  6387     9 
 6384  6383  6386  6388     9 
 6384  6383  6386  6389     9 
 6385  6383  6386  6387     9 
 6385  6383  6386  6388     9 
 6385  6383  6386  6389     9 
 6340  6390  6393  6394     9 
 6340  6390  6393  6395     9 
 6340  6390  6393  6396     9 
 6391  6390  6393  6394     9 
 6391  6390  6393  6395     9 
 6391  6390  6393  6396     9 
 6392  6390  6393  6394     9 
 6392  6390  6393  6395     9 
 6392  6390  6393  6396     9 
 6390  6393  6396  6397     9 
 6390  6393  6396  6398     9 
 6390  6393  6396  6399     9 
 6394  6393  6396  6397     9 
 6394  6393  6396  6398     9 
 6394  6393  6396  6399     9 
 6395  6393  6396  6397     9 
 6395  6393  6396  6398     9 
 6395  6393  6396  6399     9 
 6393  6396  6399  6400     9 
 6393  6396  6399  6401     9 
 6393  6396  6399  6402     9 
 6397  6396  6399  6400     9 
 6397  6396  6399  6401     9 
 6397  6396  6399  6402     9 
 6398  6396  6399  6400     9 
 6398  6396  6399  6401     9 
 6398  6396  6399  6402     9 
 6396  6399  6402  6403     9 
 6396  6399  6402  6404     9 
 6396  6399  6402  6405     9 
 6400  6399  6402  6403     9 
 6400  6399  6402  6404     9 
 6400  6399  6402  6405     9 
 6401  6399  6402  6403     9 
 6401  6399  6402  6404     9 
 6401  6399  6402  6405     9 
 6399  6402  6405  6406     9 
 6399  6402  6405  6407     9 
 6399  6402  6405  6408     9 
 6403  6402  6405  6406     9 
 6403  6402  6405  6407     9 
 6403  6402  6405  6408     9 
 6404  6402  6405  6406     9 
 6404  6402  6405  6407     9 
 6404  6402  6405  6408     9 
 6402  6405  6408  6409     9 
 6402  6405  6408  6410     9 
 6402  6405  6408  6411     9 
 6406  6405  6408  6409     9 
 6406  6405  6408  6410     9 
 6406  6405  6408  6411     9 
 6407  6405  6408  6409     9 
 6407  6405  6408  6410     9 
 6407  6405  6408  6411     9 
 6405  6408  6411  6412     9 
 6405  6408  6411  6413     9 
 6405  6408  6411  6414     9 
 6409  6408  6411  6412     9 
 6409  6408  6411  6413     9 
 6409  6408  6411  6414     9 
 6410  6408  6411  6412     9 
 6410  6408  6411  6413     9 
 6410  6408  6411  6414     9 
 6408  6411  6414  6415     9 
 6408  6411  6414  6416     9 
 6408  6411  6414  6417     9 
 6412  6411  6414  6415     9 
 6412  6411  6414  6416     9 
 6412  6411  6414  6417     9 
 6413  6411  6414  6415     9 
 6413  6411  6414  6416     9 
 6413  6411  6414  6417     9 
 6411  6414  6417  6418     9 
 6411  6414  6417  6419     9 
 6411  6414  6417  6420     9 
 6415  6414  6417  6418     9 
 6415  6414  6417  6419     9 
 6415  6414  6417  6420     9 
 6416  6414  6417  6418     9 
 6416  6414  6417  6419     9 
 6416  6414  6417  6420     9 
 6414  6417  6420  6421     9 
 6414  6417  6420  6422     9 
 6414  6417  6420  6423     9 
 6418  6417  6420  6421     9 
 6418  6417  6420  6422     9 
 6418  6417  6420  6423     9 
 6419  6417  6420  6421     9 
 6419  6417  6420  6422     9 
 6419  6417  6420  6423     9 
 6417  6420  6423  6424     9 
 6417  6420  6423  6425     9 
 6417  6420  6423  6426     9 
 6421  6420  6423  6424     9 
 6421  6420  6423  6425     9 
 6421  6420  6423  6426     9 
 6422  6420  6423  6424     9 
 6422  6420  6423  6425     9 
 6422  6420  6423  6426     9 
 6420  6423  6426  6427     9 
 6420  6423  6426  6428     9 
 6420  6423  6426  6429     9 
 6424  6423  6426  6427     9 
 6424  6423  6426  6428     9 
 6424  6423  6426  6429     9 
 6425  6423  6426  6427     9 
 6425  6423  6426  6428     9 
 6425  6423  6426  6429     9 
 6423  6426  6429  6430     9 
 6423  6426  6429  6431     9 
 6423  6426  6429  6432     9 
 6427  6426  6429  6430     9 
 6427  6426  6429  6431     9 
 6427  6426  6429  6432     9 
 6428  6426  6429  6430     9 
 6428  6426  6429  6431     9 
 6428  6426  6429  6432     9 
 6437  6433  6434  6435     9 
 6437  6433  6434  6436     9 
 6437  6433  6434  6449     9 
 6441  6433  6434  6435     9 
 6441  6433  6434  6436     9 
 6441  6433  6434  6449     9 
 6445  6433  6434  6435     9 
 6445  6433  6434  6436     9 
 6445  6433  6434  6449     9 
 6434  6433  6437  6438     9 
 6434  6433  6437  6439     9 
 6434  6433  6437  6440     9 
 6441  6433  6437  6438     9 
 6441  6433  6437  6439     9 
 6441  6433  6437  6440     9 
 6445  6433  6437  6438     9 
 6445  6433  6437  6439     9 
 6445  6433  6437  6440     9 
 6434  6433  6441  6442     9 
 6434  6433  6441  6443     9 
 6434  6433  6441  6444     9 
 6437  6433  6441  6442     9 
 6437  6433  6441  6443     9 
 6437  6433  6441  6444     9 
 6445  6433  6441  6442     9 
 6445  6433  6441  6443     9 
 6445  6433  6441  6444     9 
 6434  6433  6445  6446     9 
 6434  6433  6445  6447     9 
 6434  6433  6445  6448     9 
 6437  6433  6445  6446     9 
 6437  6433  6445  6447     9 
 6437  6433  6445  6448     9 
 6441  6433  6445  6446     9 
 6441  6433  6445  6447     9 
 6441  6433  6445  6448     9 
 6433  6434  6449  6450     9 
 6433  6434  6449  6451     9 
 6433  6434  6449  6455     9 
 6435  6434  6449  6450     9 
 6435  6434  6449  6451     9 
 6435  6434  6449  6455     9 
 6436  6434  6449  6450     9 
 6436  6434  6449  6451     9 
 6436  6434  6449  6455     9 
 6434  6449  6455  6452     9 
 6450  6449  6455  6452     9 
 6451  6449  6455  6452     9 
 6453  6452  6455  6449     9 
 6454  6452  6455  6449     9 
 6456  6452  6455  6449     9 
 6453  6452  6456  6457     9 
 6454  6452  6456  6457     9 
 6455  6452  6456  6457     9 
 6452  6456  6457  6458     9 
 6452  6456  6457  6459     9 
 6452  6456  6457  6460     9 
 6456  6457  6460  6461     9 
 6456  6457  6460  6462     9 
 6456  6457  6460  6468     9 
 6458  6457  6460  6461     9 
 6458  6457  6460  6462     9 
 6458  6457  6460  6468     9 
 6459  6457  6460  6461     9 
 6459  6457  6460  6462     9 
 6459  6457  6460  6468     9 
 6457  6460  6462  6463     9 
 6461  6460  6462  6463     9 
 6468  6460  6462  6463     9 
 6457  6460  6468  6469     9 
 6457  6460  6468  6470     9 
 6457  6460  6468  6471     9 
 6461  6460  6468  6469     9 
 6461  6460  6468  6470     9 
 6461  6460  6468  6471     9 
 6462  6460  6468  6469     9 
 6462  6460  6468  6470     9 
 6462  6460  6468  6471     9 
 6460  6462  6463  6464     9 
 6460  6462  6463  6465     9 
 6462  6463  6465  6466     9 
 6462  6463  6465  6467     9 
 6462  6463  6465  6477     9 
 6464  6463  6465  6466     9 
 6464  6463  6465  6467     9 
 6464  6463  6465  6477     9 
 6463  6465  6477  6478     9 
 6463  6465  6477  6479     9 
 6463  6465  6477  6480     9 
 6466  6465  6477  6478     9 
 6466  6465  6477  6479     9 
 6466  6465  6477  6480     9 
 6467  6465  6477  6478     9 
 6467  6465  6477  6479     9 
 6467  6465  6477  6480     9 
 6460  6468  6471  6472     9 
 6469  6468  6471  6472     9 
 6470  6468  6471  6472     9 
 6468  6471  6472  6473     9 
 6468  6471  6472  6474     9 
 6471  6472  6474  6475     9 
 6471  6472  6474  6476     9 
 6471  6472  6474  6524     9 
 6473  6472  6474  6475     9 
 6473  6472  6474  6476     9 
 6473  6472  6474  6524     9 
 6472  6474  6524  6525     9 
 6472  6474  6524  6526     9 
 6472  6474  6524  6527     9 
 6475  6474  6524  6525     9 
 6475  6474  6524  6526     9 
 6475  6474  6524  6527     9 
 6476  6474  6524  6525     9 
 6476  6474  6524  6526     9 
 6476  6474  6524  6527     9 
 6465  6477  6480  6481     9 
 6465  6477  6480  6482     9 
 6465  6477  6480  6483     9 
 6478  6477  6480  6481     9 
 6478  6477  6480  6482     9 
 6478  6477  6480  6483     9 
 6479  6477  6480  6481     9 
 6479  6477  6480  6482     9 
 6479  6477  6480  6483     9 
 6477  6480  6483  6484     9 
 6477  6480  6483  6485     9 
 6477  6480  6483  6486     9 
 6481  6480  6483  6484     9 
 6481  6480  6483  6485     9 
 6481  6480  6483  6486     9 
 6482  6480  6483  6484     9 
 6482  6480  6483  6485     9 
 6482  6480  6483  6486     9 
 6480  6483  6486  6487     9 
 6480  6483  6486  6488     9 
 6480  6483  6486  6489     9 
 6484  6483  6486  6487     9 
 6484  6483  6486  6488     9 
 6484  6483  6486  6489     9 
 6485  6483  6486  6487     9 
 6485  6483  6486  6488     9 
 6485  6483  6486  6489     9 
 6483  6486  6489  6490     9 
 6483  6486  6489  6491     9 
 6483  6486  6489  6492     9 
 6487  6486  6489  6490     9 
 6487  6486  6489  6491     9 
 6487  6486  6489  6492     9 
 6488  6486  6489  6490     9 
 6488  6486  6489  6491     9 
 6488  6486  6489  6492     9 
 6486  6489  6492  6493     9 
 6486  6489  6492  6494     9 
 6486  6489  6492  6495     9 
 6490  6489  6492  6493     9 
 6490  6489  6492  6494     9 
 6490  6489  6492  6495     9 
 6491  6489  6492  6493     9 
 6491  6489  6492  6494     9 
 6491  6489  6492  6495     9 
 6489  6492  6495  6496     9 
 6489  6492  6495  6497     9 
 6493  6492  6495  6496     9 
 6493  6492  6495  6497     9 
 6494  6492  6495  6496     9 
 6494  6492  6495  6497     9 
 6492  6495  6497  6498     9 
 6492  6495  6497  6499     9 
 6496  6495  6497  6498     9 
 6496  6495  6497  6499     9 
 6495  6497  6499  6500     9 
 6495  6497  6499  6501     9 
 6495  6497  6499  6502     9 
 6498  6497  6499  6500     9 
 6498  6497  6499  6501     9 
 6498  6497  6499  6502     9 
 6497  6499  6502  6503     9 
 6497  6499  6502  6504     9 
 6497  6499  6502  6505     9 
 6500  6499  6502  6503     9 
 6500  6499  6502  6504     9 
 6500  6499  6502  6505     9 
 6501  6499  6502  6503     9 
 6501  6499  6502  6504     9 
 6501  6499  6502  6505     9 
 6499  6502  6505  6506     9 
 6499  6502  6505  6507     9 
 6499  6502  6505  6508     9 
 6503  6502  6505  6506     9 
 6503  6502  6505  6507     9 
 6503  6502  6505  6508     9 
 6504  6502  6505  6506     9 
 6504  6502  6505  6507     9 
 6504  6502  6505  6508     9 
 6502  6505  6508  6509     9 
 6502  6505  6508  6510     9 
 6502  6505  6508  6511     9 
 6506  6505  6508  6509     9 
 6506  6505  6508  6510     9 
 6506  6505  6508  6511     9 
 6507  6505  6508  6509     9 
 6507  6505  6508  6510     9 
 6507  6505  6508  6511     9 
 6505  6508  6511  6512     9 
 6505  6508  6511  6513     9 
 6505  6508  6511  6514     9 
 6509  6508  6511  6512     9 
 6509  6508  6511  6513     9 
 6509  6508  6511  6514     9 
 6510  6508  6511  6512     9 
 6510  6508  6511  6513     9 
 6510  6508  6511  6514     9 
 6508  6511  6514  6515     9 
 6508  6511  6514  6516     9 
 6508  6511  6514  6517     9 
 6512  6511  6514  6515     9 
 6512  6511  6514  6516     9 
 6512  6511  6514  6517     9 
 6513  6511  6514  6515     9 
 6513  6511  6514  6516     9 
 6513  6511  6514  6517     9 
 6511  6514  6517  6518     9 
 6511  6514  6517  6519     9 
 6511  6514  6517  6520     9 
 6515  6514  6517  6518     9 
 6515  6514  6517  6519     9 
 6515  6514  6517  6520     9 
 6516  6514  6517  6518     9 
 6516  6514  6517  6519     9 
 6516  6514  6517  6520     9 
 6514  6517  6520  6521     9 
 6514  6517  6520  6522     9 
 6514  6517  6520  6523     9 
 6518  6517  6520  6521     9 
 6518  6517  6520  6522     9 
 6518  6517  6520  6523     9 
 6519  6517  6520  6521     9 
 6519  6517  6520  6522     9 
 6519  6517  6520  6523     9 
 6474  6524  6527  6528     9 
 6474  6524  6527  6529     9 
 6474  6524  6527  6530     9 
 6525  6524  6527  6528     9 
 6525  6524  6527  6529     9 
 6525  6524  6527  6530     9 
 6526  6524  6527  6528     9 
 6526  6524  6527  6529     9 
 6526  6524  6527  6530     9 
 6524  6527  6530  6531     9 
 6524  6527  6530  6532     9 
 6524  6527  6530  6533     9 
 6528  6527  6530  6531     9 
 6528  6527  6530  6532     9 
 6528  6527  6530  6533     9 
 6529  6527  6530  6531     9 
 6529  6527  6530  6532     9 
 6529  6527  6530  6533     9 
 6527  6530  6533  6534     9 
 6527  6530  6533  6535     9 
 6527  6530  6533  6536     9 
 6531  6530  6533  6534     9 
 6531  6530  6533  6535     9 
 6531  6530  6533  6536     9 
 6532  6530  6533  6534     9 
 6532  6530  6533  6535     9 
 6532  6530  6533  6536     9 
 6530  6533  6536  6537     9 
 6530  6533  6536  6538     9 
 6530  6533  6536  6539     9 
 6534  6533  6536  6537     9 
 6534  6533  6536  6538     9 
 6534  6533  6536  6539     9 
 6535  6533  6536  6537     9 
 6535  6533  6536  6538     9 
 6535  6533  6536  6539     9 
 6533  6536  6539  6540     9 
 6533  6536  6539  6541     9 
 6533  6536  6539  6542     9 
 6537  6536  6539  6540     9 
 6537  6536  6539  6541     9 
 6537  6536  6539  6542     9 
 6538  6536  6539  6540     9 
 6538  6536  6539  6541     9 
 6538  6536  6539  6542     9 
 6536  6539  6542  6543     9 
 6536  6539  6542  6544     9 
 6536  6539  6542  6545     9 
 6540  6539  6542  6543     9 
 6540  6539  6542  6544     9 
 6540  6539  6542  6545     9 
 6541  6539  6542  6543     9 
 6541  6539  6542  6544     9 
 6541  6539  6542  6545     9 
 6539  6542  6545  6546     9 
 6539  6542  6545  6547     9 
 6539  6542  6545  6548     9 
 6543  6542  6545  6546     9 
 6543  6542  6545  6547     9 
 6543  6542  6545  6548     9 
 6544  6542  6545  6546     9 
 6544  6542  6545  6547     9 
 6544  6542  6545  6548     9 
 6542  6545  6548  6549     9 
 6542  6545  6548  6550     9 
 6542  6545  6548  6551     9 
 6546  6545  6548  6549     9 
 6546  6545  6548  6550     9 
 6546  6545  6548  6551     9 
 6547  6545  6548  6549     9 
 6547  6545  6548  6550     9 
 6547  6545  6548  6551     9 
 6545  6548  6551  6552     9 
 6545  6548  6551  6553     9 
 6545  6548  6551  6554     9 
 6549  6548  6551  6552     9 
 6549  6548  6551  6553     9 
 6549  6548  6551  6554     9 
 6550  6548  6551  6552     9 
 6550  6548  6551  6553     9 
 6550  6548  6551  6554     9 
 6548  6551  6554  6555     9 
 6548  6551  6554  6556     9 
 6548  6551  6554  6557     9 
 6552  6551  6554  6555     9 
 6552  6551  6554  6556     9 
 6552  6551  6554  6557     9 
 6553  6551  6554  6555     9 
 6553  6551  6554  6556     9 
 6553  6551  6554  6557     9 
 6551  6554  6557  6558     9 
 6551  6554  6557  6559     9 
 6551  6554  6557  6560     9 
 6555  6554  6557  6558     9 
 6555  6554  6557  6559     9 
 6555  6554  6557  6560     9 
 6556  6554  6557  6558     9 
 6556  6554  6557  6559     9 
 6556  6554  6557  6560     9 
 6554  6557  6560  6561     9 
 6554  6557  6560  6562     9 
 6554  6557  6560  6563     9 
 6558  6557  6560  6561     9 
 6558  6557  6560  6562     9 
 6558  6557  6560  6563     9 
 6559  6557  6560  6561     9 
 6559  6557  6560  6562     9 
 6559  6557  6560  6563     9 
 6557  6560  6563  6564     9 
 6557  6560  6563  6565     9 
 6557  6560  6563  6566     9 
 6561  6560  6563  6564     9 
 6561  6560  6563  6565     9 
 6561  6560  6563  6566     9 
 6562  6560  6563  6564     9 
 6562  6560  6563  6565     9 
 6562  6560  6563  6566     9 
 6571  6567  6568  6569     9 
 6571  6567  6568  6570     9 
 6571  6567  6568  6583     9 
 6575  6567  6568  6569     9 
 6575  6567  6568  6570     9 
 6575  6567  6568  6583     9 
 6579  6567  6568  6569     9 
 6579  6567  6568  6570     9 
 6579  6567  6568  6583     9 
 6568  6567  6571  6572     9 
 6568  6567  6571  6573     9 
 6568  6567  6571  6574     9 
 6575  6567  6571  6572     9 
 6575  6567  6571  6573     9 
 6575  6567  6571  6574     9 
 6579  6567  6571  6572     9 
 6579  6567  6571  6573     9 
 6579  6567  6571  6574     9 
 6568  6567  6575  6576     9 
 6568  6567  6575  6577     9 
 6568  6567  6575  6578     9 
 6571  6567  6575  6576     9 
 6571  6567  6575  6577     9 
 6571  6567  6575  6578     9 
 6579  6567  6575  6576     9 
 6579  6567  6575  6577     9 
 6579  6567  6575  6578     9 
 6568  6567  6579  6580     9 
 6568  6567  6579  6581     9 
 6568  6567  6579  6582     9 
 6571  6567  6579  6580     9 
 6571  6567  6579  6581     9 
 6571  6567  6579  6582     9 
 6575  6567  6579  6580     9 
 6575  6567  6579  6581     9 
 6575  6567  6579  6582     9 
 6567  6568  6583  6584     9 
 6567  6568  6583  6585     9 
 6567  6568  6583  6589     9 
 6569  6568  6583  6584     9 
 6569  6568  6583  6585     9 
 6569  6568  6583  6589     9 
 6570  6568  6583  6584     9 
 6570  6568  6583  6585     9 
 6570  6568  6583  6589     9 
 6568  6583  6589  6586     9 
 6584  6583  6589  6586     9 
 6585  6583  6589  6586     9 
 6587  6586  6589  6583     9 
 6588  6586  6589  6583     9 
 6590  6586  6589  6583     9 
 6587  6586  6590  6591     9 
 6588  6586  6590  6591     9 
 6589  6586  6590  6591     9 
 6586  6590  6591  6592     9 
 6586  6590  6591  6593     9 
 6586  6590  6591  6594     9 
 6590  6591  6594  6595     9 
 6590  6591  6594  6596     9 
 6590  6591  6594  6602     9 
 6592  6591  6594  6595     9 
 6592  6591  6594  6596     9 
 6592  6591  6594  6602     9 
 6593  6591  6594  6595     9 
 6593  6591  6594  6596     9 
 6593  6591  6594  6602     9 
 6591  6594  6596  6597     9 
 6595  6594  6596  6597     9 
 6602  6594  6596  6597     9 
 6591  6594  6602  6603     9 
 6591  6594  6602  6604     9 
 6591  6594  6602  6605     9 
 6595  6594  6602  6603     9 
 6595  6594  6602  6604     9 
 6595  6594  6602  6605     9 
 6596  6594  6602  6603     9 
 6596  6594  6602  6604     9 
 6596  6594  6602  6605     9 
 6594  6596  6597  6598     9 
 6594  6596  6597  6599     9 
 6596  6597  6599  6600     9 
 6596  6597  6599  6601     9 
 6596  6597  6599  6611     9 
 6598  6597  6599  6600     9 
 6598  6597  6599  6601     9 
 6598  6597  6599  6611     9 
 6597  6599  6611  6612     9 
 6597  6599  6611  6613     9 
 6597  6599  6611  6614     9 
 6600  6599  6611  6612     9 
 6600  6599  6611  6613     9 
 6600  6599  6611  6614     9 
 6601  6599  6611  6612     9 
 6601  6599  6611  6613     9 
 6601  6599  6611  6614     9 
 6594  6602  6605  6606     9 
 6603  6602  6605  6606     9 
 6604  6602  6605  6606     9 
 6602  6605  6606  6607     9 
 6602  6605  6606  6608     9 
 6605  6606  6608  6609     9 
 6605  6606  6608  6610     9 
 6605  6606  6608  6658     9 
 6607  6606  6608  6609     9 
 6607  6606  6608  6610     9 
 6607  6606  6608  6658     9 
 6606  6608  6658  6659     9 
 6606  6608  6658  6660     9 
 6606  6608  6658  6661     9 
 6609  6608  6658  6659     9 
 6609  6608  6658  6660     9 
 6609  6608  6658  6661     9 
 6610  6608  6658  6659     9 
 6610  6608  6658  6660     9 
 6610  6608  6658  6661     9 
 6599  6611  6614  6615     9 
 6599  6611  6614  6616     9 
 6599  6611  6614  6617     9 
 6612  6611  6614  6615     9 
 6612  6611  6614  6616     9 
 6612  6611  6614  6617     9 
 6613  6611  6614  6615     9 
 6613  6611  6614  6616     9 
 6613  6611  6614  6617     9 
 6611  6614  6617  6618     9 
 6611  6614  6617  6619     9 
 6611  6614  6617  6620     9 
 6615  6614  6617  6618     9 
 6615  6614  6617  6619     9 
 6615  6614  6617  6620     9 
 6616  6614  6617  6618     9 
 6616  6614  6617  6619     9 
 6616  6614  6617  6620     9 
 6614  6617  6620  6621     9 
 6614  6617  6620  6622     9 
 6614  6617  6620  6623     9 
 6618  6617  6620  6621     9 
 6618  6617  6620  6622     9 
 6618  6617  6620  6623     9 
 6619  6617  6620  6621     9 
 6619  6617  6620  6622     9 
 6619  6617  6620  6623     9 
 6617  6620  6623  6624     9 
 6617  6620  6623  6625     9 
 6617  6620  6623  6626     9 
 6621  6620  6623  6624     9 
 6621  6620  6623  6625     9 
 6621  6620  6623  6626     9 
 6622  6620  6623  6624     9 
 6622  6620  6623  6625     9 
 6622  6620  6623  6626     9 
 6620  6623  6626  6627     9 
 6620  6623  6626  6628     9 
 6620  6623  6626  6629     9 
 6624  6623  6626  6627     9 
 6624  6623  6626  6628     9 
 6624  6623  6626  6629     9 
 6625  6623  6626  6627     9 
 6625  6623  6626  6628     9 
 6625  6623  6626  6629     9 
 6623  6626  6629  6630     9 
 6623  6626  6629  6631     9 
 6627  6626  6629  6630     9 
 6627  6626  6629  6631     9 
 6628  6626  6629  6630     9 
 6628  6626  6629  6631     9 
 6626  6629  6631  6632     9 
 6626  6629  6631  6633     9 
 6630  6629  6631  6632     9 
 6630  6629  6631  6633     9 
 6629  6631  6633  6634     9 
 6629  6631  6633  6635     9 
 6629  6631  6633  6636     9 
 6632  6631  6633  6634     9 
 6632  6631  6633  6635     9 
 6632  6631  6633  6636     9 
 6631  6633  6636  6637     9 
 6631  6633  6636  6638     9 
 6631  6633  6636  6639     9 
 6634  6633  6636  6637     9 
 6634  6633  6636  6638     9 
 6634  6633  6636  6639     9 
 6635  6633  6636  6637     9 
 6635  6633  6636  6638     9 
 6635  6633  6636  6639     9 
 6633  6636  6639  6640     9 
 6633  6636  6639  6641     9 
 6633  6636  6639  6642     9 
 6637  6636  6639  6640     9 
 6637  6636  6639  6641     9 
 6637  6636  6639  6642     9 
 6638  6636  6639  6640     9 
 6638  6636  6639  6641     9 
 6638  6636  6639  6642     9 
 6636  6639  6642  6643     9 
 6636  6639  6642  6644     9 
 6636  6639  6642  6645     9 
 6640  6639  6642  6643     9 
 6640  6639  6642  6644     9 
 6640  6639  6642  6645     9 
 6641  6639  6642  6643     9 
 6641  6639  6642  6644     9 
 6641  6639  6642  6645     9 
 6639  6642  6645  6646     9 
 6639  6642  6645  6647     9 
 6639  6642  6645  6648     9 
 6643  6642  6645  6646     9 
 6643  6642  6645  6647     9 
 6643  6642  6645  6648     9 
 6644  6642  6645  6646     9 
 6644  6642  6645  6647     9 
 6644  6642  6645  6648     9 
 6642  6645  6648  6649     9 
 6642  6645  6648  6650     9 
 6642  6645  6648  6651     9 
 6646  6645  6648  6649     9 
 6646  6645  6648  6650     9 
 6646  6645  6648  6651     9 
 6647  6645  6648  6649     9 
 6647  6645  6648  6650     9 
 6647  6645  6648  6651     9 
 6645  6648  6651  6652     9 
 6645  6648  6651  6653     9 
 6645  6648  6651  6654     9 
 6649  6648  6651  6652     9 
 6649  6648  6651  6653     9 
 6649  6648  6651  6654     9 
 6650  6648  6651  6652     9 
 6650  6648  6651  6653     9 
 6650  6648  6651  6654     9 
 6648  6651  6654  6655     9 
 6648  6651  6654  6656     9 
 6648  6651  6654  6657     9 
 6652  6651  6654  6655     9 
 6652  6651  6654  6656     9 
 6652  6651  6654  6657     9 
 6653  6651  6654  6655     9 
 6653  6651  6654  6656     9 
 6653  6651  6654  6657     9 
 6608  6658  6661  6662     9 
 6608  6658  6661  6663     9 
 6608  6658  6661  6664     9 
 6659  6658  6661  6662     9 
 6659  6658  6661  6663     9 
 6659  6658  6661  6664     9 
 6660  6658  6661  6662     9 
 6660  6658  6661  6663     9 
 6660  6658  6661  6664     9 
 6658  6661  6664  6665     9 
 6658  6661  6664  6666     9 
 6658  6661  6664  6667     9 
 6662  6661  6664  6665     9 
 6662  6661  6664  6666     9 
 6662  6661  6664  6667     9 
 6663  6661  6664  6665     9 
 6663  6661  6664  6666     9 
 6663  6661  6664  6667     9 
 6661  6664  6667  6668     9 
 6661  6664  6667  6669     9 
 6661  6664  6667  6670     9 
 6665  6664  6667  6668     9 
 6665  6664  6667  6669     9 
 6665  6664  6667  6670     9 
 6666  6664  6667  6668     9 
 6666  6664  6667  6669     9 
 6666  6664  6667  6670     9 
 6664  6667  6670  6671     9 
 6664  6667  6670  6672     9 
 6664  6667  6670  6673     9 
 6668  6667  6670  6671     9 
 6668  6667  6670  6672     9 
 6668  6667  6670  6673     9 
 6669  6667  6670  6671     9 
 6669  6667  6670  6672     9 
 6669  6667  6670  6673     9 
 6667  6670  6673  6674     9 
 6667  6670  6673  6675     9 
 6667  6670  6673  6676     9 
 6671  6670  6673  6674     9 
 6671  6670  6673  6675     9 
 6671  6670  6673  6676     9 
 6672  6670  6673  6674     9 
 6672  6670  6673  6675     9 
 6672  6670  6673  6676     9 
 6670  6673  6676  6677     9 
 6670  6673  6676  6678     9 
 6670  6673  6676  6679     9 
 6674  6673  6676  6677     9 
 6674  6673  6676  6678     9 
 6674  6673  6676  6679     9 
 6675  6673  6676  6677     9 
 6675  6673  6676  6678     9 
 6675  6673  6676  6679     9 
 6673  6676  6679  6680     9 
 6673  6676  6679  6681     9 
 6673  6676  6679  6682     9 
 6677  6676  6679  6680     9 
 6677  6676  6679  6681     9 
 6677  6676  6679  6682     9 
 6678  6676  6679  6680     9 
 6678  6676  6679  6681     9 
 6678  6676  6679  6682     9 
 6676  6679  6682  6683     9 
 6676  6679  6682  6684     9 
 6676  6679  6682  6685     9 
 6680  6679  6682  6683     9 
 6680  6679  6682  6684     9 
 6680  6679  6682  6685     9 
 6681  6679  6682  6683     9 
 6681  6679  6682  6684     9 
 6681  6679  6682  6685     9 
 6679  6682  6685  6686     9 
 6679  6682  6685  6687     9 
 6679  6682  6685  6688     9 
 6683  6682  6685  6686     9 
 6683  6682  6685  6687     9 
 6683  6682  6685  6688     9 
 6684  6682  6685  6686     9 
 6684  6682  6685  6687     9 
 6684  6682  6685  6688     9 
 6682  6685  6688  6689     9 
 6682  6685  6688  6690     9 
 6682  6685  6688  6691     9 
 6686  6685  6688  6689     9 
 6686  6685  6688  6690     9 
 6686  6685  6688  6691     9 
 6687  6685  6688  6689     9 
 6687  6685  6688  6690     9 
 6687  6685  6688  6691     9 
 6685  6688  6691  6692     9 
 6685  6688  6691  6693     9 
 6685  6688  6691  6694     9 
 6689  6688  6691  6692     9 
 6689  6688  6691  6693     9 
 6689  6688  6691  6694     9 
 6690  6688  6691  6692     9 
 6690  6688  6691  6693     9 
 6690  6688  6691  6694     9 
 6688  6691  6694  6695     9 
 6688  6691  6694  6696     9 
 6688  6691  6694  6697     9 
 6692  6691  6694  6695     9 
 6692  6691  6694  6696     9 
 6692  6691  6694  6697     9 
 6693  6691  6694  6695     9 
 6693  6691  6694  6696     9 
 6693  6691  6694  6697     9 
 6691  6694  6697  6698     9 
 6691  6694  6697  6699     9 
 6691  6694  6697  6700     9 
 6695  6694  6697  6698     9 
 6695  6694  6697  6699     9 
 6695  6694  6697  6700     9 
 6696  6694  6697  6698     9 
 6696  6694  6697  6699     9 
 6696  6694  6697  6700     9 
 6705  6701  6702  6703     9 
 6705  6701  6702  6704     9 
 6705  6701  6702  6717     9 
 6709  6701  6702  6703     9 
 6709  6701  6702  6704     9 
 6709  6701  6702  6717     9 
 6713  6701  6702  6703     9 
 6713  6701  6702  6704     9 
 6713  6701  6702  6717     9 
 6702  6701  6705  6706     9 
 6702  6701  6705  6707     9 
 6702  6701  6705  6708     9 
 6709  6701  6705  6706     9 
 6709  6701  6705  6707     9 
 6709  6701  6705  6708     9 
 6713  6701  6705  6706     9 
 6713  6701  6705  6707     9 
 6713  6701  6705  6708     9 
 6702  6701  6709  6710     9 
 6702  6701  6709  6711     9 
 6702  6701  6709  6712     9 
 6705  6701  6709  6710     9 
 6705  6701  6709  6711     9 
 6705  6701  6709  6712     9 
 6713  6701  6709  6710     9 
 6713  6701  6709  6711     9 
 6713  6701  6709  6712     9 
 6702  6701  6713  6714     9 
 6702  6701  6713  6715     9 
 6702  6701  6713  6716     9 
 6705  6701  6713  6714     9 
 6705  6701  6713  6715     9 
 6705  6701  6713  6716     9 
 6709  6701  6713  6714     9 
 6709  6701  6713  6715     9 
 6709  6701  6713  6716     9 
 6701  6702  6717  6718     9 
 6701  6702  6717  6719     9 
 6701  6702  6717  6723     9 
 6703  6702  6717  6718     9 
 6703  6702  6717  6719     9 
 6703  6702  6717  6723     9 
 6704  6702  6717  6718     9 
 6704  6702  6717  6719     9 
 6704  6702  6717  6723     9 
 6702  6717  6723  6720     9 
 6718  6717  6723  6720     9 
 6719  6717  6723  6720     9 
 6721  6720  6723  6717     9 
 6722  6720  6723  6717     9 
 6724  6720  6723  6717     9 
 6721  6720  6724  6725     9 
 6722  6720  6724  6725     9 
 6723  6720  6724  6725     9 
 6720  6724  6725  6726     9 
 6720  6724  6725  6727     9 
 6720  6724  6725  6728     9 
 6724  6725  6728  6729     9 
 6724  6725  6728  6730     9 
 6724  6725  6728  6736     9 
 6726  6725  6728  6729     9 
 6726  6725  6728  6730     9 
 6726  6725  6728  6736     9 
 6727  6725  6728  6729     9 
 6727  6725  6728  6730     9 
 6727  6725  6728  6736     9 
 6725  6728  6730  6731     9 
 6729  6728  6730  6731     9 
 6736  6728  6730  6731     9 
 6725  6728  6736  6737     9 
 6725  6728  6736  6738     9 
 6725  6728  6736  6739     9 
 6729  6728  6736  6737     9 
 6729  6728  6736  6738     9 
 6729  6728  6736  6739     9 
 6730  6728  6736  6737     9 
 6730  6728  6736  6738     9 
 6730  6728  6736  6739     9 
 6728  6730  6731  6732     9 
 6728  6730  6731  6733     9 
 6730  6731  6733  6734     9 
 6730  6731  6733  6735     9 
 6730  6731  6733  6745     9 
 6732  6731  6733  6734     9 
 6732  6731  6733  6735     9 
 6732  6731  6733  6745     9 
 6731  6733  6745  6746     9 
 6731  6733  6745  6747     9 
 6731  6733  6745  6748     9 
 6734  6733  6745  6746     9 
 6734  6733  6745  6747     9 
 6734  6733  6745  6748     9 
 6735  6733  6745  6746     9 
 6735  6733  6745  6747     9 
 6735  6733  6745  6748     9 
 6728  6736  6739  6740     9 
 6737  6736  6739  6740     9 
 6738  6736  6739  6740     9 
 6736  6739  6740  6741     9 
 6736  6739  6740  6742     9 
 6739  6740  6742  6743     9 
 6739  6740  6742  6744     9 
 6739  6740  6742  6792     9 
 6741  6740  6742  6743     9 
 6741  6740  6742  6744     9 
 6741  6740  6742  6792     9 
 6740  6742  6792  6793     9 
 6740  6742  6792  6794     9 
 6740  6742  6792  6795     9 
 6743  6742  6792  6793     9 
 6743  6742  6792  6794     9 
 6743  6742  6792  6795     9 
 6744  6742  6792  6793     9 
 6744  6742  6792  6794     9 
 6744  6742  6792  6795     9 
 6733  6745  6748  6749     9 
 6733  6745  6748  6750     9 
 6733  6745  6748  6751     9 
 6746  6745  6748  6749     9 
 6746  6745  6748  6750     9 
 6746  6745  6748  6751     9 
 6747  6745  6748  6749     9 
 6747  6745  6748  6750     9 
 6747  6745  6748  6751     9 
 6745  6748  6751  6752     9 
 6745  6748  6751  6753     9 
 6745  6748  6751  6754     9 
 6749  6748  6751  6752     9 
 6749  6748  6751  6753     9 
 6749  6748  6751  6754     9 
 6750  6748  6751  6752     9 
 6750  6748  6751  6753     9 
 6750  6748  6751  6754     9 
 6748  6751  6754  6755     9 
 6748  6751  6754  6756     9 
 6748  6751  6754  6757     9 
 6752  6751  6754  6755     9 
 6752  6751  6754  6756     9 
 6752  6751  6754  6757     9 
 6753  6751  6754  6755     9 
 6753  6751  6754  6756     9 
 6753  6751  6754  6757     9 
 6751  6754  6757  6758     9 
 6751  6754  6757  6759     9 
 6751  6754  6757  6760     9 
 6755  6754  6757  6758     9 
 6755  6754  6757  6759     9 
 6755  6754  6757  6760     9 
 6756  6754  6757  6758     9 
 6756  6754  6757  6759     9 
 6756  6754  6757  6760     9 
 6754  6757  6760  6761     9 
 6754  6757  6760  6762     9 
 6754  6757  6760  6763     9 
 6758  6757  6760  6761     9 
 6758  6757  6760  6762     9 
 6758  6757  6760  6763     9 
 6759  6757  6760  6761     9 
 6759  6757  6760  6762     9 
 6759  6757  6760  6763     9 
 6757  6760  6763  6764     9 
 6757  6760  6763  6765     9 
 6761  6760  6763  6764     9 
 6761  6760  6763  6765     9 
 6762  6760  6763  6764     9 
 6762  6760  6763  6765     9 
 6760  6763  6765  6766     9 
 6760  6763  6765  6767     9 
 6764  6763  6765  6766     9 
 6764  6763  6765  6767     9 
 6763  6765  6767  6768     9 
 6763  6765  6767  6769     9 
 6763  6765  6767  6770     9 
 6766  6765  6767  6768     9 
 6766  6765  6767  6769     9 
 6766  6765  6767  6770     9 
 6765  6767  6770  6771     9 
 6765  6767  6770  6772     9 
 6765  6767  6770  6773     9 
 6768  6767  6770  6771     9 
 6768  6767  6770  6772     9 
 6768  6767  6770  6773     9 
 6769  6767  6770  6771     9 
 6769  6767  6770  6772     9 
 6769  6767  6770  6773     9 
 6767  6770  6773  6774     9 
 6767  6770  6773  6775     9 
 6767  6770  6773  6776     9 
 6771  6770  6773  6774     9 
 6771  6770  6773  6775     9 
 6771  6770  6773  6776     9 
 6772  6770  6773  6774     9 
 6772  6770  6773  6775     9 
 6772  6770  6773  6776     9 
 6770  6773  6776  6777     9 
 6770  6773  6776  6778     9 
 6770  6773  6776  6779     9 
 6774  6773  6776  6777     9 
 6774  6773  6776  6778     9 
 6774  6773  6776  6779     9 
 6775  6773  6776  6777     9 
 6775  6773  6776  6778     9 
 6775  6773  6776  6779     9 
 6773  6776  6779  6780     9 
 6773  6776  6779  6781     9 
 6773  6776  6779  6782     9 
 6777  6776  6779  6780     9 
 6777  6776  6779  6781     9 
 6777  6776  6779  6782     9 
 6778  6776  6779  6780     9 
 6778  6776  6779  6781     9 
 6778  6776  6779  6782     9 
 6776  6779  6782  6783     9 
 6776  6779  6782  6784     9 
 6776  6779  6782  6785     9 
 6780  6779  6782  6783     9 
 6780  6779  6782  6784     9 
 6780  6779  6782  6785     9 
 6781  6779  6782  6783     9 
 6781  6779  6782  6784     9 
 6781  6779  6782  6785     9 
 6779  6782  6785  6786     9 
 6779  6782  6785  6787     9 
 6779  6782  6785  6788     9 
 6783  6782  6785  6786     9 
 6783  6782  6785  6787     9 
 6783  6782  6785  6788     9 
 6784  6782  6785  6786     9 
 6784  6782  6785  6787     9 
 6784  6782  6785  6788     9 
 6782  6785  6788  6789     9 
 6782  6785  6788  6790     9 
 6782  6785  6788  6791     9 
 6786  6785  6788  6789     9 
 6786  6785  6788  6790     9 
 6786  6785  6788  6791     9 
 6787  6785  6788  6789     9 
 6787  6785  6788  6790     9 
 6787  6785  6788  6791     9 
 6742  6792  6795  6796     9 
 6742  6792  6795  6797     9 
 6742  6792  6795  6798     9 
 6793  6792  6795  6796     9 
 6793  6792  6795  6797     9 
 6793  6792  6795  6798     9 
 6794  6792  6795  6796     9 
 6794  6792  6795  6797     9 
 6794  6792  6795  6798     9 
 6792  6795  6798  6799     9 
 6792  6795  6798  6800     9 
 6792  6795  6798  6801     9 
 6796  6795  6798  6799     9 
 6796  6795  6798  6800     9 
 6796  6795  6798  6801     9 
 6797  6795  6798  6799     9 
 6797  6795  6798  6800     9 
 6797  6795  6798  6801     9 
 6795  6798  6801  6802     9 
 6795  6798  6801  6803     9 
 6795  6798  6801  6804     9 
 6799  6798  6801  6802     9 
 6799  6798  6801  6803     9 
 6799  6798  6801  6804     9 
 6800  6798  6801  6802     9 
 6800  6798  6801  6803     9 
 6800  6798  6801  6804     9 
 6798  6801  6804  6805     9 
 6798  6801  6804  6806     9 
 6798  6801  6804  6807     9 
 6802  6801  6804  6805     9 
 6802  6801  6804  6806     9 
 6802  6801  6804  6807     9 
 6803  6801  6804  6805     9 
 6803  6801  6804  6806     9 
 6803  6801  6804  6807     9 
 6801  6804  6807  6808     9 
 6801  6804  6807  6809     9 
 6801  6804  6807  6810     9 
 6805  6804  6807  6808     9 
 6805  6804  6807  6809     9 
 6805  6804  6807  6810     9 
 6806  6804  6807  6808     9 
 6806  6804  6807  6809     9 
 6806  6804  6807  6810     9 
 6804  6807  6810  6811     9 
 6804  6807  6810  6812     9 
 6804  6807  6810  6813     9 
 6808  6807  6810  6811     9 
 6808  6807  6810  6812     9 
 6808  6807  6810  6813     9 
 6809  6807  6810  6811     9 
 6809  6807  6810  6812     9 
 6809  6807  6810  6813     9 
 6807  6810  6813  6814     9 
 6807  6810  6813  6815     9 
 6807  6810  6813  6816     9 
 6811  6810  6813  6814     9 
 6811  6810  6813  6815     9 
 6811  6810  6813  6816     9 
 6812  6810  6813  6814     9 
 6812  6810  6813  6815     9 
 6812  6810  6813  6816     9 
 6810  6813  6816  6817     9 
 6810  6813  6816  6818     9 
 6810  6813  6816  6819     9 
 6814  6813  6816  6817     9 
 6814  6813  6816  6818     9 
 6814  6813  6816  6819     9 
 6815  6813  6816  6817     9 
 6815  6813  6816  6818     9 
 6815  6813  6816  6819     9 
 6813  6816  6819  6820     9 
 6813  6816  6819  6821     9 
 6813  6816  6819  6822     9 
 6817  6816  6819  6820     9 
 6817  6816  6819  6821     9 
 6817  6816  6819  6822     9 
 6818  6816  6819  6820     9 
 6818  6816  6819  6821     9 
 6818  6816  6819  6822     9 
 6816  6819  6822  6823     9 
 6816  6819  6822  6824     9 
 6816  6819  6822  6825     9 
 6820  6819  6822  6823     9 
 6820  6819  6822  6824     9 
 6820  6819  6822  6825     9 
 6821  6819  6822  6823     9 
 6821  6819  6822  6824     9 
 6821  6819  6822  6825     9 
 6819  6822  6825  6826     9 
 6819  6822  6825  6827     9 
 6819  6822  6825  6828     9 
 6823  6822  6825  6826     9 
 6823  6822  6825  6827     9 
 6823  6822  6825  6828     9 
 6824  6822  6825  6826     9 
 6824  6822  6825  6827     9 
 6824  6822  6825  6828     9 
 6822  6825  6828  6829     9 
 6822  6825  6828  6830     9 
 6822  6825  6828  6831     9 
 6826  6825  6828  6829     9 
 6826  6825  6828  6830     9 
 6826  6825  6828  6831     9 
 6827  6825  6828  6829     9 
 6827  6825  6828  6830     9 
 6827  6825  6828  6831     9 
 6825  6828  6831  6832     9 
 6825  6828  6831  6833     9 
 6825  6828  6831  6834     9 
 6829  6828  6831  6832     9 
 6829  6828  6831  6833     9 
 6829  6828  6831  6834     9 
 6830  6828  6831  6832     9 
 6830  6828  6831  6833     9 
 6830  6828  6831  6834     9 
 6839  6835  6836  6837     9 
 6839  6835  6836  6838     9 
 6839  6835  6836  6851     9 
 6843  6835  6836  6837     9 
 6843  6835  6836  6838     9 
 6843  6835  6836  6851     9 
 6847  6835  6836  6837     9 
 6847  6835  6836  6838     9 
 6847  6835  6836  6851     9 
 6836  6835  6839  6840     9 
 6836  6835  6839  6841     9 
 6836  6835  6839  6842     9 
 6843  6835  6839  6840     9 
 6843  6835  6839  6841     9 
 6843  6835  6839  6842     9 
 6847  6835  6839  6840     9 
 6847  6835  6839  6841     9 
 6847  6835  6839  6842     9 
 6836  6835  6843  6844     9 
 6836  6835  6843  6845     9 
 6836  6835  6843  6846     9 
 6839  6835  6843  6844     9 
 6839  6835  6843  6845     9 
 6839  6835  6843  6846     9 
 6847  6835  6843  6844     9 
 6847  6835  6843  6845     9 
 6847  6835  6843  6846     9 
 6836  6835  6847  6848     9 
 6836  6835  6847  6849     9 
 6836  6835  6847  6850     9 
 6839  6835  6847  6848     9 
 6839  6835  6847  6849     9 
 6839  6835  6847  6850     9 
 6843  6835  6847  6848     9 
 6843  6835  6847  6849     9 
 6843  6835  6847  6850     9 
 6835  6836  6851  6852     9 
 6835  6836  6851  6853     9 
 6835  6836  6851  6857     9 
 6837  6836  6851  6852     9 
 6837  6836  6851  6853     9 
 6837  6836  6851  6857     9 
 6838  6836  6851  6852     9 
 6838  6836  6851  6853     9 
 6838  6836  6851  6857     9 
 6836  6851  6857  6854     9 
 6852  6851  6857  6854     9 
 6853  6851  6857  6854     9 
 6855  6854  6857  6851     9 
 6856  6854  6857  6851     9 
 6858  6854  6857  6851     9 
 6855  6854  6858  6859     9 
 6856  6854  6858  6859     9 
 6857  6854  6858  6859     9 
 6854  6858  6859  6860     9 
 6854  6858  6859  6861     9 
 6854  6858  6859  6862     9 
 6858  6859  6862  6863     9 
 6858  6859  6862  6864     9 
 6858  6859  6862  6870     9 
 6860  6859  6862  6863     9 
 6860  6859  6862  6864     9 
 6860  6859  6862  6870     9 
 6861  6859  6862  6863     9 
 6861  6859  6862  6864     9 
 6861  6859  6862  6870     9 
 6859  6862  6864  6865     9 
 6863  6862  6864  6865     9 
 6870  6862  6864  6865     9 
 6859  6862  6870  6871     9 
 6859  6862  6870  6872     9 
 6859  6862  6870  6873     9 
 6863  6862  6870  6871     9 
 6863  6862  6870  6872     9 
 6863  6862  6870  6873     9 
 6864  6862  6870  6871     9 
 6864  6862  6870  6872     9 
 6864  6862  6870  6873     9 
 6862  6864  6865  6866     9 
 6862  6864  6865  6867     9 
 6864  6865  6867  6868     9 
 6864  6865  6867  6869     9 
 6864  6865  6867  6879     9 
 6866  6865  6867  6868     9 
 6866  6865  6867  6869     9 
 6866  6865  6867  6879     9 
 6865  6867  6879  6880     9 
 6865  6867  6879  6881     9 
 6865  6867  6879  6882     9 
 6868  6867  6879  6880     9 
 6868  6867  6879  6881     9 
 6868  6867  6879  6882     9 
 6869  6867  6879  6880     9 
 6869  6867  6879  6881     9 
 6869  6867  6879  6882     9 
 6862  6870  6873  6874     9 
 6871  6870  6873  6874     9 
 6872  6870  6873  6874     9 
 6870  6873  6874  6875     9 
 6870  6873  6874  6876     9 
 6873  6874  6876  6877     9 
 6873  6874  6876  6878     9 
 6873  6874  6876  6926     9 
 6875  6874  6876  6877     9 
 6875  6874  6876  6878     9 
 6875  6874  6876  6926     9 
 6874  6876  6926  6927     9 
 6874  6876  6926  6928     9 
 6874  6876  6926  6929     9 
 6877  6876  6926  6927     9 
 6877  6876  6926  6928     9 
 6877  6876  6926  6929     9 
 6878  6876  6926  6927     9 
 6878  6876  6926  6928     9 
 6878  6876  6926  6929     9 
 6867  6879  6882  6883     9 
 6867  6879  6882  6884     9 
 6867  6879  6882  6885     9 
 6880  6879  6882  6883     9 
 6880  6879  6882  6884     9 
 6880  6879  6882  6885     9 
 6881  6879  6882  6883     9 
 6881  6879  6882  6884     9 
 6881  6879  6882  6885     9 
 6879  6882  6885  6886     9 
 6879  6882  6885  6887     9 
 6879  6882  6885  6888     9 
 6883  6882  6885  6886     9 
 6883  6882  6885  6887     9 
 6883  6882  6885  6888     9 
 6884  6882  6885  6886     9 
 6884  6882  6885  6887     9 
 6884  6882  6885  6888     9 
 6882  6885  6888  6889     9 
 6882  6885  6888  6890     9 
 6882  6885  6888  6891     9 
 6886  6885  6888  6889     9 
 6886  6885  6888  6890     9 
 6886  6885  6888  6891     9 
 6887  6885  6888  6889     9 
 6887  6885  6888  6890     9 
 6887  6885  6888  6891     9 
 6885  6888  6891  6892     9 
 6885  6888  6891  6893     9 
 6885  6888  6891  6894     9 
 6889  6888  6891  6892     9 
 6889  6888  6891  6893     9 
 6889  6888  6891  6894     9 
 6890  6888  6891  6892     9 
 6890  6888  6891  6893     9 
 6890  6888  6891  6894     9 
 6888  6891  6894  6895     9 
 6888  6891  6894  6896     9 
 6888  6891  6894  6897     9 
 6892  6891  6894  6895     9 
 6892  6891  6894  6896     9 
 6892  6891  6894  6897     9 
 6893  6891  6894  6895     9 
 6893  6891  6894  6896     9 
 6893  6891  6894  6897     9 
 6891  6894  6897  6898     9 
 6891  6894  6897  6899     9 
 6895  6894  6897  6898     9 
 6895  6894  6897  6899     9 
 6896  6894  6897  6898     9 
 6896  6894  6897  6899     9 
 6894  6897  6899  6900     9 
 6894  6897  6899  6901     9 
 6898  6897  6899  6900     9 
 6898  6897  6899  6901     9 
 6897  6899  6901  6902     9 
 6897  6899  6901  6903     9 
 6897  6899  6901  6904     9 
 6900  6899  6901  6902     9 
 6900  6899  6901  6903     9 
 6900  6899  6901  6904     9 
 6899  6901  6904  6905     9 
 6899  6901  6904  6906     9 
 6899  6901  6904  6907     9 
 6902  6901  6904  6905     9 
 6902  6901  6904  6906     9 
 6902  6901  6904  6907     9 
 6903  6901  6904  6905     9 
 6903  6901  6904  6906     9 
 6903  6901  6904  6907     9 
 6901  6904  6907  6908     9 
 6901  6904  6907  6909     9 
 6901  6904  6907  6910     9 
 6905  6904  6907  6908     9 
 6905  6904  6907  6909     9 
 6905  6904  6907  6910     9 
 6906  6904  6907  6908     9 
 6906  6904  6907  6909     9 
 6906  6904  6907  6910     9 
 6904  6907  6910  6911     9 
 6904  6907  6910  6912     9 
 6904  6907  6910  6913     9 
 6908  6907  6910  6911     9 
 6908  6907  6910  6912     9 
 6908  6907  6910  6913     9 
 6909  6907  6910  6911     9 
 6909  6907  6910  6912     9 
 6909  6907  6910  6913     9 
 6907  6910  6913  6914     9 
 6907  6910  6913  6915     9 
 6907  6910  6913  6916     9 
 6911  6910  6913  6914     9 
 6911  6910  6913  6915     9 
 6911  6910  6913  6916     9 
 6912  6910  6913  6914     9 
 6912  6910  6913  6915     9 
 6912  6910  6913  6916     9 
 6910  6913  6916  6917     9 
 6910  6913  6916  6918     9 
 6910  6913  6916  6919     9 
 6914  6913  6916  6917     9 
 6914  6913  6916  6918     9 
 6914  6913  6916  6919     9 
 6915  6913  6916  6917     9 
 6915  6913  6916  6918     9 
 6915  6913  6916  6919     9 
 6913  6916  6919  6920     9 
 6913  6916  6919  6921     9 
 6913  6916  6919  6922     9 
 6917  6916  6919  6920     9 
 6917  6916  6919  6921     9 
 6917  6916  6919  6922     9 
 6918  6916  6919  6920     9 
 6918  6916  6919  6921     9 
 6918  6916  6919  6922     9 
 6916  6919  6922  6923     9 
 6916  6919  6922  6924     9 
 6916  6919  6922  6925     9 
 6920  6919  6922  6923     9 
 6920  6919  6922  6924     9 
 6920  6919  6922  6925     9 
 6921  6919  6922  6923     9 
 6921  6919  6922  6924     9 
 6921  6919  6922  6925     9 
 6876  6926  6929  6930     9 
 6876  6926  6929  6931     9 
 6876  6926  6929  6932     9 
 6927  6926  6929  6930     9 
 6927  6926  6929  6931     9 
 6927  6926  6929  6932     9 
 6928  6926  6929  6930     9 
 6928  6926  6929  6931     9 
 6928  6926  6929  6932     9 
 6926  6929  6932  6933     9 
 6926  6929  6932  6934     9 
 6926  6929  6932  6935     9 
 6930  6929  6932  6933     9 
 6930  6929  6932  6934     9 
 6930  6929  6932  6935     9 
 6931  6929  6932  6933     9 
 6931  6929  6932  6934     9 
 6931  6929  6932  6935     9 
 6929  6932  6935  6936     9 
 6929  6932  6935  6937     9 
 6929  6932  6935  6938     9 
 6933  6932  6935  6936     9 
 6933  6932  6935  6937     9 
 6933  6932  6935  6938     9 
 6934  6932  6935  6936     9 
 6934  6932  6935  6937     9 
 6934  6932  6935  6938     9 
 6932  6935  6938  6939     9 
 6932  6935  6938  6940     9 
 6932  6935  6938  6941     9 
 6936  6935  6938  6939     9 
 6936  6935  6938  6940     9 
 6936  6935  6938  6941     9 
 6937  6935  6938  6939     9 
 6937  6935  6938  6940     9 
 6937  6935  6938  6941     9 
 6935  6938  6941  6942     9 
 6935  6938  6941  6943     9 
 6935  6938  6941  6944     9 
 6939  6938  6941  6942     9 
 6939  6938  6941  6943     9 
 6939  6938  6941  6944     9 
 6940  6938  6941  6942     9 
 6940  6938  6941  6943     9 
 6940  6938  6941  6944     9 
 6938  6941  6944  6945     9 
 6938  6941  6944  6946     9 
 6938  6941  6944  6947     9 
 6942  6941  6944  6945     9 
 6942  6941  6944  6946     9 
 6942  6941  6944  6947     9 
 6943  6941  6944  6945     9 
 6943  6941  6944  6946     9 
 6943  6941  6944  6947     9 
 6941  6944  6947  6948     9 
 6941  6944  6947  6949     9 
 6941  6944  6947  6950     9 
 6945  6944  6947  6948     9 
 6945  6944  6947  6949     9 
 6945  6944  6947  6950     9 
 6946  6944  6947  6948     9 
 6946  6944  6947  6949     9 
 6946  6944  6947  6950     9 
 6944  6947  6950  6951     9 
 6944  6947  6950  6952     9 
 6944  6947  6950  6953     9 
 6948  6947  6950  6951     9 
 6948  6947  6950  6952     9 
 6948  6947  6950  6953     9 
 6949  6947  6950  6951     9 
 6949  6947  6950  6952     9 
 6949  6947  6950  6953     9 
 6947  6950  6953  6954     9 
 6947  6950  6953  6955     9 
 6947  6950  6953  6956     9 
 6951  6950  6953  6954     9 
 6951  6950  6953  6955     9 
 6951  6950  6953  6956     9 
 6952  6950  6953  6954     9 
 6952  6950  6953  6955     9 
 6952  6950  6953  6956     9 
 6950  6953  6956  6957     9 
 6950  6953  6956  6958     9 
 6950  6953  6956  6959     9 
 6954  6953  6956  6957     9 
 6954  6953  6956  6958     9 
 6954  6953  6956  6959     9 
 6955  6953  6956  6957     9 
 6955  6953  6956  6958     9 
 6955  6953  6956  6959     9 
 6953  6956  6959  6960     9 
 6953  6956  6959  6961     9 
 6953  6956  6959  6962     9 
 6957  6956  6959  6960     9 
 6957  6956  6959  6961     9 
 6957  6956  6959  6962     9 
 6958  6956  6959  6960     9 
 6958  6956  6959  6961     9 
 6958  6956  6959  6962     9 
 6956  6959  6962  6963     9 
 6956  6959  6962  6964     9 
 6956  6959  6962  6965     9 
 6960  6959  6962  6963     9 
 6960  6959  6962  6964     9 
 6960  6959  6962  6965     9 
 6961  6959  6962  6963     9 
 6961  6959  6962  6964     9 
 6961  6959  6962  6965     9 
 6959  6962  6965  6966     9 
 6959  6962  6965  6967     9 
 6959  6962  6965  6968     9 
 6963  6962  6965  6966     9 
 6963  6962  6965  6967     9 
 6963  6962  6965  6968     9 
 6964  6962  6965  6966     9 
 6964  6962  6965  6967     9 
 6964  6962  6965  6968     9 
 6973  6969  6970  6971     9 
 6973  6969  6970  6972     9 
 6973  6969  6970  6985     9 
 6977  6969  6970  6971     9 
 6977  6969  6970  6972     9 
 6977  6969  6970  6985     9 
 6981  6969  6970  6971     9 
 6981  6969  6970  6972     9 
 6981  6969  6970  6985     9 
 6970  6969  6973  6974     9 
 6970  6969  6973  6975     9 
 6970  6969  6973  6976     9 
 6977  6969  6973  6974     9 
 6977  6969  6973  6975     9 
 6977  6969  6973  6976     9 
 6981  6969  6973  6974     9 
 6981  6969  6973  6975     9 
 6981  6969  6973  6976     9 
 6970  6969  6977  6978     9 
 6970  6969  6977  6979     9 
 6970  6969  6977  6980     9 
 6973  6969  6977  6978     9 
 6973  6969  6977  6979     9 
 6973  6969  6977  6980     9 
 6981  6969  6977  6978     9 
 6981  6969  6977  6979     9 
 6981  6969  6977  6980     9 
 6970  6969  6981  6982     9 
 6970  6969  6981  6983     9 
 6970  6969  6981  6984     9 
 6973  6969  6981  6982     9 
 6973  6969  6981  6983     9 
 6973  6969  6981  6984     9 
 6977  6969  6981  6982     9 
 6977  6969  6981  6983     9 
 6977  6969  6981  6984     9 
 6969  6970  6985  6986     9 
 6969  6970  6985  6987     9 
 6969  6970  6985  6991     9 
 6971  6970  6985  6986     9 
 6971  6970  6985  6987     9 
 6971  6970  6985  6991     9 
 6972  6970  6985  6986     9 
 6972  6970  6985  6987     9 
 6972  6970  6985  6991     9 
 6970  6985  6991  6988     9 
 6986  6985  6991  6988     9 
 6987  6985  6991  6988     9 
 6989  6988  6991  6985     9 
 6990  6988  6991  6985     9 
 6992  6988  6991  6985     9 
 6989  6988  6992  6993     9 
 6990  6988  6992  6993     9 
 6991  6988  6992  6993     9 
 6988  6992  6993  6994     9 
 6988  6992  6993  6995     9 
 6988  6992  6993  6996     9 
 6992  6993  6996  6997     9 
 6992  6993  6996  6998     9 
 6992  6993  6996  7004     9 
 6994  6993  6996  6997     9 
 6994  6993  6996  6998     9 
 6994  6993  6996  7004     9 
 6995  6993  6996  6997     9 
 6995  6993  6996  6998     9 
 6995  6993  6996  7004     9 
 6993  6996  6998  6999     9 
 6997  6996  6998  6999     9 
 7004  6996  6998  6999     9 
 6993  6996  7004  7005     9 
 6993  6996  7004  7006     9 
 6993  6996  7004  7007     9 
 6997  6996  7004  7005     9 
 6997  6996  7004  7006     9 
 6997  6996  7004  7007     9 
 6998  6996  7004  7005     9 
 6998  6996  7004  7006     9 
 6998  6996  7004  7007     9 
 6996  6998  6999  7000     9 
 6996  6998  6999  7001     9 
 6998  6999  7001  7002     9 
 6998  6999  7001  7003     9 
 6998  6999  7001  7013     9 
 7000  6999  7001  7002     9 
 7000  6999  7001  7003     9 
 7000  6999  7001  7013     9 
 6999  7001  7013  7014     9 
 6999  7001  7013  7015     9 
 6999  7001  7013  7016     9 
 7002  7001  7013  7014     9 
 7002  7001  7013  7015     9 
 7002  7001  7013  7016     9 
 7003  7001  7013  7014     9 
 7003  7001  7013  7015     9 
 7003  7001  7013  7016     9 
 6996  7004  7007  7008     9 
 7005  7004  7007  7008     9 
 7006  7004  7007  7008     9 
 7004  7007  7008  7009     9 
 7004  7007  7008  7010     9 
 7007  7008  7010  7011     9 
 7007  7008  7010  7012     9 
 7007  7008  7010  7060     9 
 7009  7008  7010  7011     9 
 7009  7008  7010  7012     9 
 7009  7008  7010  7060     9 
 7008  7010  7060  7061     9 
 7008  7010  7060  7062     9 
 7008  7010  7060  7063     9 
 7011  7010  7060  7061     9 
 7011  7010  7060  7062     9 
 7011  7010  7060  7063     9 
 7012  7010  7060  7061     9 
 7012  7010  7060  7062     9 
 7012  7010  7060  7063     9 
 7001  7013  7016  7017     9 
 7001  7013  7016  7018     9 
 7001  7013  7016  7019     9 
 7014  7013  7016  7017     9 
 7014  7013  7016  7018     9 
 7014  7013  7016  7019     9 
 7015  7013  7016  7017     9 
 7015  7013  7016  7018     9 
 7015  7013  7016  7019     9 
 7013  7016  7019  7020     9 
 7013  7016  7019  7021     9 
 7013  7016  7019  7022     9 
 7017  7016  7019  7020     9 
 7017  7016  7019  7021     9 
 7017  7016  7019  7022     9 
 7018  7016  7019  7020     9 
 7018  7016  7019  7021     9 
 7018  7016  7019  7022     9 
 7016  7019  7022  7023     9 
 7016  7019  7022  7024     9 
 7016  7019  7022  7025     9 
 7020  7019  7022  7023     9 
 7020  7019  7022  7024     9 
 7020  7019  7022  7025     9 
 7021  7019  7022  7023     9 
 7021  7019  7022  7024     9 
 7021  7019  7022  7025     9 
 7019  7022  7025  7026     9 
 7019  7022  7025  7027     9 
 7019  7022  7025  7028     9 
 7023  7022  7025  7026     9 
 7023  7022  7025  7027     9 
 7023  7022  7025  7028     9 
 7024  7022  7025  7026     9 
 7024  7022  7025  7027     9 
 7024  7022  7025  7028     9 
 7022  7025  7028  7029     9 
 7022  7025  7028  7030     9 
 7022  7025  7028  7031     9 
 7026  7025  7028  7029     9 
 7026  7025  7028  7030     9 
 7026  7025  7028  7031     9 
 7027  7025  7028  7029     9 
 7027  7025  7028  7030     9 
 7027  7025  7028  7031     9 
 7025  7028  7031  7032     9 
 7025  7028  7031  7033     9 
 7029  7028  7031  7032     9 
 7029  7028  7031  7033     9 
 7030  7028  7031  7032     9 
 7030  7028  7031  7033     9 
 7028  7031  7033  7034     9 
 7028  7031  7033  7035     9 
 7032  7031  7033  7034     9 
 7032  7031  7033  7035     9 
 7031  7033  7035  7036     9 
 7031  7033  7035  7037     9 
 7031  7033  7035  7038     9 
 7034  7033  7035  7036     9 
 7034  7033  7035  7037     9 
 7034  7033  7035  7038     9 
 7033  7035  7038  7039     9 
 7033  7035  7038  7040     9 
 7033  7035  7038  7041     9 
 7036  7035  7038  7039     9 
 7036  7035  7038  7040     9 
 7036  7035  7038  7041     9 
 7037  7035  7038  7039     9 
 7037  7035  7038  7040     9 
 7037  7035  7038  7041     9 
 7035  7038  7041  7042     9 
 7035  7038  7041  7043     9 
 7035  7038  7041  7044     9 
 7039  7038  7041  7042     9 
 7039  7038  7041  7043     9 
 7039  7038  7041  7044     9 
 7040  7038  7041  7042     9 
 7040  7038  7041  7043     9 
 7040  7038  7041  7044     9 
 7038  7041  7044  7045     9 
 7038  7041  7044  7046     9 
 7038  7041  7044  7047     9 
 7042  7041  7044  7045     9 
 7042  7041  7044  7046     9 
 7042  7041  7044  7047     9 
 7043  7041  7044  7045     9 
 7043  7041  7044  7046     9 
 7043  7041  7044  7047     9 
 7041  7044  7047  7048     9 
 7041  7044  7047  7049     9 
 7041  7044  7047  7050     9 
 7045  7044  7047  7048     9 
 7045  7044  7047  7049     9 
 7045  7044  7047  7050     9 
 7046  7044  7047  7048     9 
 7046  7044  7047  7049     9 
 7046  7044  7047  7050     9 
 7044  7047  7050  7051     9 
 7044  7047  7050  7052     9 
 7044  7047  7050  7053     9 
 7048  7047  7050  7051     9 
 7048  7047  7050  7052     9 
 7048  7047  7050  7053     9 
 7049  7047  7050  7051     9 
 7049  7047  7050  7052     9 
 7049  7047  7050  7053     9 
 7047  7050  7053  7054     9 
 7047  7050  7053  7055     9 
 7047  7050  7053  7056     9 
 7051  7050  7053  7054     9 
 7051  7050  7053  7055     9 
 7051  7050  7053  7056     9 
 7052  7050  7053  7054     9 
 7052  7050  7053  7055     9 
 7052  7050  7053  7056     9 
 7050  7053  7056  7057     9 
 7050  7053  7056  7058     9 
 7050  7053  7056  7059     9 
 7054  7053  7056  7057     9 
 7054  7053  7056  7058     9 
 7054  7053  7056  7059     9 
 7055  7053  7056  7057     9 
 7055  7053  7056  7058     9 
 7055  7053  7056  7059     9 
 7010  7060  7063  7064     9 
 7010  7060  7063  7065     9 
 7010  7060  7063  7066     9 
 7061  7060  7063  7064     9 
 7061  7060  7063  7065     9 
 7061  7060  7063  7066     9 
 7062  7060  7063  7064     9 
 7062  7060  7063  7065     9 
 7062  7060  7063  7066     9 
 7060  7063  7066  7067     9 
 7060  7063  7066  7068     9 
 7060  7063  7066  7069     9 
 7064  7063  7066  7067     9 
 7064  7063  7066  7068     9 
 7064  7063  7066  7069     9 
 7065  7063  7066  7067     9 
 7065  7063  7066  7068     9 
 7065  7063  7066  7069     9 
 7063  7066  7069  7070     9 
 7063  7066  7069  7071     9 
 7063  7066  7069  7072     9 
 7067  7066  7069  7070     9 
 7067  7066  7069  7071     9 
 7067  7066  7069  7072     9 
 7068  7066  7069  7070     9 
 7068  7066  7069  7071     9 
 7068  7066  7069  7072     9 
 7066  7069  7072  7073     9 
 7066  7069  7072  7074     9 
 7066  7069  7072  7075     9 
 7070  7069  7072  7073     9 
 7070  7069  7072  7074     9 
 7070  7069  7072  7075     9 
 7071  7069  7072  7073     9 
 7071  7069  7072  7074     9 
 7071  7069  7072  7075     9 
 7069  7072  7075  7076     9 
 7069  7072  7075  7077     9 
 7069  7072  7075  7078     9 
 7073  7072  7075  7076     9 
 7073  7072  7075  7077     9 
 7073  7072  7075  7078     9 
 7074  7072  7075  7076     9 
 7074  7072  7075  7077     9 
 7074  7072  7075  7078     9 
 7072  7075  7078  7079     9 
 7072  7075  7078  7080     9 
 7072  7075  7078  7081     9 
 7076  7075  7078  7079     9 
 7076  7075  7078  7080     9 
 7076  7075  7078  7081     9 
 7077  7075  7078  7079     9 
 7077  7075  7078  7080     9 
 7077  7075  7078  7081     9 
 7075  7078  7081  7082     9 
 7075  7078  7081  7083     9 
 7075  7078  7081  7084     9 
 7079  7078  7081  7082     9 
 7079  7078  7081  7083     9 
 7079  7078  7081  7084     9 
 7080  7078  7081  7082     9 
 7080  7078  7081  7083     9 
 7080  7078  7081  7084     9 
 7078  7081  7084  7085     9 
 7078  7081  7084  7086     9 
 7078  7081  7084  7087     9 
 7082  7081  7084  7085     9 
 7082  7081  7084  7086     9 
 7082  7081  7084  7087     9 
 7083  7081  7084  7085     9 
 7083  7081  7084  7086     9 
 7083  7081  7084  7087     9 
 7081  7084  7087  7088     9 
 7081  7084  7087  7089     9 
 7081  7084  7087  7090     9 
 7085  7084  7087  7088     9 
 7085  7084  7087  7089     9 
 7085  7084  7087  7090     9 
 7086  7084  7087  7088     9 
 7086  7084  7087  7089     9 
 7086  7084  7087  7090     9 
 7084  7087  7090  7091     9 
 7084  7087  7090  7092     9 
 7084  7087  7090  7093     9 
 7088  7087  7090  7091     9 
 7088  7087  7090  7092     9 
 7088  7087  7090  7093     9 
 7089  7087  7090  7091     9 
 7089  7087  7090  7092     9 
 7089  7087  7090  7093     9 
 7087  7090  7093  7094     9 
 7087  7090  7093  7095     9 
 7087  7090  7093  7096     9 
 7091  7090  7093  7094     9 
 7091  7090  7093  7095     9 
 7091  7090  7093  7096     9 
 7092  7090  7093  7094     9 
 7092  7090  7093  7095     9 
 7092  7090  7093  7096     9 
 7090  7093  7096  7097     9 
 7090  7093  7096  7098     9 
 7090  7093  7096  7099     9 
 7094  7093  7096  7097     9 
 7094  7093  7096  7098     9 
 7094  7093  7096  7099     9 
 7095  7093  7096  7097     9 
 7095  7093  7096  7098     9 
 7095  7093  7096  7099     9 
 7093  7096  7099  7100     9 
 7093  7096  7099  7101     9 
 7093  7096  7099  7102     9 
 7097  7096  7099  7100     9 
 7097  7096  7099  7101     9 
 7097  7096  7099  7102     9 
 7098  7096  7099  7100     9 
 7098  7096  7099  7101     9 
 7098  7096  7099  7102     9 
 7107  7103  7104  7105     9 
 7107  7103  7104  7106     9 
 7107  7103  7104  7119     9 
 7111  7103  7104  7105     9 
 7111  7103  7104  7106     9 
 7111  7103  7104  7119     9 
 7115  7103  7104  7105     9 
 7115  7103  7104  7106     9 
 7115  7103  7104  7119     9 
 7104  7103  7107  7108     9 
 7104  7103  7107  7109     9 
 7104  7103  7107  7110     9 
 7111  7103  7107  7108     9 
 7111  7103  7107  7109     9 
 7111  7103  7107  7110     9 
 7115  7103  7107  7108     9 
 7115  7103  7107  7109     9 
 7115  7103  7107  7110     9 
 7104  7103  7111  7112     9 
 7104  7103  7111  7113     9 
 7104  7103  7111  7114     9 
 7107  7103  7111  7112     9 
 7107  7103  7111  7113     9 
 7107  7103  7111  7114     9 
 7115  7103  7111  7112     9 
 7115  7103  7111  7113     9 
 7115  7103  7111  7114     9 
 7104  7103  7115  7116     9 
 7104  7103  7115  7117     9 
 7104  7103  7115  7118     9 
 7107  7103  7115  7116     9 
 7107  7103  7115  7117     9 
 7107  7103  7115  7118     9 
 7111  7103  7115  7116     9 
 7111  7103  7115  7117     9 
 7111  7103  7115  7118     9 
 7103  7104  7119  7120     9 
 7103  7104  7119  7121     9 
 7103  7104  7119  7125     9 
 7105  7104  7119  7120     9 
 7105  7104  7119  7121     9 
 7105  7104  7119  7125     9 
 7106  7104  7119  7120     9 
 7106  7104  7119  7121     9 
 7106  7104  7119  7125     9 
 7104  7119  7125  7122     9 
 7120  7119  7125  7122     9 
 7121  7119  7125  7122     9 
 7123  7122  7125  7119     9 
 7124  7122  7125  7119     9 
 7126  7122  7125  7119     9 
 7123  7122  7126  7127     9 
 7124  7122  7126  7127     9 
 7125  7122  7126  7127     9 
 7122  7126  7127  7128     9 
 7122  7126  7127  7129     9 
 7122  7126  7127  7130     9 
 7126  7127  7130  7131     9 
 7126  7127  7130  7132     9 
 7126  7127  7130  7138     9 
 7128  7127  7130  7131     9 
 7128  7127  7130  7132     9 
 7128  7127  7130  7138     9 
 7129  7127  7130  7131     9 
 7129  7127  7130  7132     9 
 7129  7127  7130  7138     9 
 7127  7130  7132  7133     9 
 7131  7130  7132  7133     9 
 7138  7130  7132  7133     9 
 7127  7130  7138  7139     9 
 7127  7130  7138  7140     9 
 7127  7130  7138  7141     9 
 7131  7130  7138  7139     9 
 7131  7130  7138  7140     9 
 7131  7130  7138  7141     9 
 7132  7130  7138  7139     9 
 7132  7130  7138  7140     9 
 7132  7130  7138  7141     9 
 7130  7132  7133  7134     9 
 7130  7132  7133  7135     9 
 7132  7133  7135  7136     9 
 7132  7133  7135  7137     9 
 7132  7133  7135  7147     9 
 7134  7133  7135  7136     9 
 7134  7133  7135  7137     9 
 7134  7133  7135  7147     9 
 7133  7135  7147  7148     9 
 7133  7135  7147  7149     9 
 7133  7135  7147  7150     9 
 7136  7135  7147  7148     9 
 7136  7135  7147  7149     9 
 7136  7135  7147  7150     9 
 7137  7135  7147  7148     9 
 7137  7135  7147  7149     9 
 7137  7135  7147  7150     9 
 7130  7138  7141  7142     9 
 7139  7138  7141  7142     9 
 7140  7138  7141  7142     9 
 7138  7141  7142  7143     9 
 7138  7141  7142  7144     9 
 7141  7142  7144  7145     9 
 7141  7142  7144  7146     9 
 7141  7142  7144  7194     9 
 7143  7142  7144  7145     9 
 7143  7142  7144  7146     9 
 7143  7142  7144  7194     9 
 7142  7144  7194  7195     9 
 7142  7144  7194  7196     9 
 7142  7144  7194  7197     9 
 7145  7144  7194  7195     9 
 7145  7144  7194  7196     9 
 7145  7144  7194  7197     9 
 7146  7144  7194  7195     9 
 7146  7144  7194  7196     9 
 7146  7144  7194  7197     9 
 7135  7147  7150  7151     9 
 7135  7147  7150  7152     9 
 7135  7147  7150  7153     9 
 7148  7147  7150  7151     9 
 7148  7147  7150  7152     9 
 7148  7147  7150  7153     9 
 7149  7147  7150  7151     9 
 7149  7147  7150  7152     9 
 7149  7147  7150  7153     9 
 7147  7150  7153  7154     9 
 7147  7150  7153  7155     9 
 7147  7150  7153  7156     9 
 7151  7150  7153  7154     9 
 7151  7150  7153  7155     9 
 7151  7150  7153  7156     9 
 7152  7150  7153  7154     9 
 7152  7150  7153  7155     9 
 7152  7150  7153  7156     9 
 7150  7153  7156  7157     9 
 7150  7153  7156  7158     9 
 7150  7153  7156  7159     9 
 7154  7153  7156  7157     9 
 7154  7153  7156  7158     9 
 7154  7153  7156  7159     9 
 7155  7153  7156  7157     9 
 7155  7153  7156  7158     9 
 7155  7153  7156  7159     9 
 7153  7156  7159  7160     9 
 7153  7156  7159  7161     9 
 7153  7156  7159  7162     9 
 7157  7156  7159  7160     9 
 7157  7156  7159  7161     9 
 7157  7156  7159  7162     9 
 7158  7156  7159  7160     9 
 7158  7156  7159  7161     9 
 7158  7156  7159  7162     9 
 7156  7159  7162  7163     9 
 7156  7159  7162  7164     9 
 7156  7159  7162  7165     9 
 7160  7159  7162  7163     9 
 7160  7159  7162  7164     9 
 7160  7159  7162  7165     9 
 7161  7159  7162  7163     9 
 7161  7159  7162  7164     9 
 7161  7159  7162  7165     9 
 7159  7162  7165  7166     9 
 7159  7162  7165  7167     9 
 7163  7162  7165  7166     9 
 7163  7162  7165  7167     9 
 7164  7162  7165  7166     9 
 7164  7162  7165  7167     9 
 7162  7165  7167  7168     9 
 7162  7165  7167  7169     9 
 7166  7165  7167  7168     9 
 7166  7165  7167  7169     9 
 7165  7167  7169  7170     9 
 7165  7167  7169  7171     9 
 7165  7167  7169  7172     9 
 7168  7167  7169  7170     9 
 7168  7167  7169  7171     9 
 7168  7167  7169  7172     9 
 7167  7169  7172  7173     9 
 7167  7169  7172  7174     9 
 7167  7169  7172  7175     9 
 7170  7169  7172  7173     9 
 7170  7169  7172  7174     9 
 7170  7169  7172  7175     9 
 7171  7169  7172  7173     9 
 7171  7169  7172  7174     9 
 7171  7169  7172  7175     9 
 7169  7172  7175  7176     9 
 7169  7172  7175  7177     9 
 7169  7172  7175  7178     9 
 7173  7172  7175  7176     9 
 7173  7172  7175  7177     9 
 7173  7172  7175  7178     9 
 7174  7172  7175  7176     9 
 7174  7172  7175  7177     9 
 7174  7172  7175  7178     9 
 7172  7175  7178  7179     9 
 7172  7175  7178  7180     9 
 7172  7175  7178  7181     9 
 7176  7175  7178  7179     9 
 7176  7175  7178  7180     9 
 7176  7175  7178  7181     9 
 7177  7175  7178  7179     9 
 7177  7175  7178  7180     9 
 7177  7175  7178  7181     9 
 7175  7178  7181  7182     9 
 7175  7178  7181  7183     9 
 7175  7178  7181  7184     9 
 7179  7178  7181  7182     9 
 7179  7178  7181  7183     9 
 7179  7178  7181  7184     9 
 7180  7178  7181  7182     9 
 7180  7178  7181  7183     9 
 7180  7178  7181  7184     9 
 7178  7181  7184  7185     9 
 7178  7181  7184  7186     9 
 7178  7181  7184  7187     9 
 7182  7181  7184  7185     9 
 7182  7181  7184  7186     9 
 7182  7181  7184  7187     9 
 7183  7181  7184  7185     9 
 7183  7181  7184  7186     9 
 7183  7181  7184  7187     9 
 7181  7184  7187  7188     9 
 7181  7184  7187  7189     9 
 7181  7184  7187  7190     9 
 7185  7184  7187  7188     9 
 7185  7184  7187  7189     9 
 7185  7184  7187  7190     9 
 7186  7184  7187  7188     9 
 7186  7184  7187  7189     9 
 7186  7184  7187  7190     9 
 7184  7187  7190  7191     9 
 7184  7187  7190  7192     9 
 7184  7187  7190  7193     9 
 7188  7187  7190  7191     9 
 7188  7187  7190  7192     9 
 7188  7187  7190  7193     9 
 7189  7187  7190  7191     9 
 7189  7187  7190  7192     9 
 7189  7187  7190  7193     9 
 7144  7194  7197  7198     9 
 7144  7194  7197  7199     9 
 7144  7194  7197  7200     9 
 7195  7194  7197  7198     9 
 7195  7194  7197  7199     9 
 7195  7194  7197  7200     9 
 7196  7194  7197  7198     9 
 7196  7194  7197  7199     9 
 7196  7194  7197  7200     9 
 7194  7197  7200  7201     9 
 7194  7197  7200  7202     9 
 7194  7197  7200  7203     9 
 7198  7197  7200  7201     9 
 7198  7197  7200  7202     9 
 7198  7197  7200  7203     9 
 7199  7197  7200  7201     9 
 7199  7197  7200  7202     9 
 7199  7197  7200  7203     9 
 7197  7200  7203  7204     9 
 7197  7200  7203  7205     9 
 7197  7200  7203  7206     9 
 7201  7200  7203  7204     9 
 7201  7200  7203  7205     9 
 7201  7200  7203  7206     9 
 7202  7200  7203  7204     9 
 7202  7200  7203  7205     9 
 7202  7200  7203  7206     9 
 7200  7203  7206  7207     9 
 7200  7203  7206  7208     9 
 7200  7203  7206  7209     9 
 7204  7203  7206  7207     9 
 7204  7203  7206  7208     9 
 7204  7203  7206  7209     9 
 7205  7203  7206  7207     9 
 7205  7203  7206  7208     9 
 7205  7203  7206  7209     9 
 7203  7206  7209  7210     9 
 7203  7206  7209  7211     9 
 7203  7206  7209  7212     9 
 7207  7206  7209  7210     9 
 7207  7206  7209  7211     9 
 7207  7206  7209  7212     9 
 7208  7206  7209  7210     9 
 7208  7206  7209  7211     9 
 7208  7206  7209  7212     9 
 7206  7209  7212  7213     9 
 7206  7209  7212  7214     9 
 7206  7209  7212  7215     9 
 7210  7209  7212  7213     9 
 7210  7209  7212  7214     9 
 7210  7209  7212  7215     9 
 7211  7209  7212  7213     9 
 7211  7209  7212  7214     9 
 7211  7209  7212  7215     9 
 7209  7212  7215  7216     9 
 7209  7212  7215  7217     9 
 7209  7212  7215  7218     9 
 7213  7212  7215  7216     9 
 7213  7212  7215  7217     9 
 7213  7212  7215  7218     9 
 7214  7212  7215  7216     9 
 7214  7212  7215  7217     9 
 7214  7212  7215  7218     9 
 7212  7215  7218  7219     9 
 7212  7215  7218  7220     9 
 7212  7215  7218  7221     9 
 7216  7215  7218  7219     9 
 7216  7215  7218  7220     9 
 7216  7215  7218  7221     9 
 7217  7215  7218  7219     9 
 7217  7215  7218  7220     9 
 7217  7215  7218  7221     9 
 7215  7218  7221  7222     9 
 7215  7218  7221  7223     9 
 7215  7218  7221  7224     9 
 7219  7218  7221  7222     9 
 7219  7218  7221  7223     9 
 7219  7218  7221  7224     9 
 7220  7218  7221  7222     9 
 7220  7218  7221  7223     9 
 7220  7218  7221  7224     9 
 7218  7221  7224  7225     9 
 7218  7221  7224  7226     9 
 7218  7221  7224  7227     9 
 7222  7221  7224  7225     9 
 7222  7221  7224  7226     9 
 7222  7221  7224  7227     9 
 7223  7221  7224  7225     9 
 7223  7221  7224  7226     9 
 7223  7221  7224  7227     9 
 7221  7224  7227  7228     9 
 7221  7224  7227  7229     9 
 7221  7224  7227  7230     9 
 7225  7224  7227  7228     9 
 7225  7224  7227  7229     9 
 7225  7224  7227  7230     9 
 7226  7224  7227  7228     9 
 7226  7224  7227  7229     9 
 7226  7224  7227  7230     9 
 7224  7227  7230  7231     9 
 7224  7227  7230  7232     9 
 7224  7227  7230  7233     9 
 7228  7227  7230  7231     9 
 7228  7227  7230  7232     9 
 7228  7227  7230  7233     9 
 7229  7227  7230  7231     9 
 7229  7227  7230  7232     9 
 7229  7227  7230  7233     9 
 7227  7230  7233  7234     9 
 7227  7230  7233  7235     9 
 7227  7230  7233  7236     9 
 7231  7230  7233  7234     9 
 7231  7230  7233  7235     9 
 7231  7230  7233  7236     9 
 7232  7230  7233  7234     9 
 7232  7230  7233  7235     9 
 7232  7230  7233  7236     9 
 7241  7237  7238  7239     9 
 7241  7237  7238  7240     9 
 7241  7237  7238  7253     9 
 7245  7237  7238  7239     9 
 7245  7237  7238  7240     9 
 7245  7237  7238  7253     9 
 7249  7237  7238  7239     9 
 7249  7237  7238  7240     9 
 7249  7237  7238  7253     9 
 7238  7237  7241  7242     9 
 7238  7237  7241  7243     9 
 7238  7237  7241  7244     9 
 7245  7237  7241  7242     9 
 7245  7237  7241  7243     9 
 7245  7237  7241  7244     9 
 7249  7237  7241  7242     9 
 7249  7237  7241  7243     9 
 7249  7237  7241  7244     9 
 7238  7237  7245  7246     9 
 7238  7237  7245  7247     9 
 7238  7237  7245  7248     9 
 7241  7237  7245  7246     9 
 7241  7237  7245  7247     9 
 7241  7237  7245  7248     9 
 7249  7237  7245  7246     9 
 7249  7237  7245  7247     9 
 7249  7237  7245  7248     9 
 7238  7237  7249  7250     9 
 7238  7237  7249  7251     9 
 7238  7237  7249  7252     9 
 7241  7237  7249  7250     9 
 7241  7237  7249  7251     9 
 7241  7237  7249  7252     9 
 7245  7237  7249  7250     9 
 7245  7237  7249  7251     9 
 7245  7237  7249  7252     9 
 7237  7238  7253  7254     9 
 7237  7238  7253  7255     9 
 7237  7238  7253  7259     9 
 7239  7238  7253  7254     9 
 7239  7238  7253  7255     9 
 7239  7238  7253  7259     9 
 7240  7238  7253  7254     9 
 7240  7238  7253  7255     9 
 7240  7238  7253  7259     9 
 7238  7253  7259  7256     9 
 7254  7253  7259  7256     9 
 7255  7253  7259  7256     9 
 7257  7256  7259  7253     9 
 7258  7256  7259  7253     9 
 7260  7256  7259  7253     9 
 7257  7256  7260  7261     9 
 7258  7256  7260  7261     9 
 7259  7256  7260  7261     9 
 7256  7260  7261  7262     9 
 7256  7260  7261  7263     9 
 7256  7260  7261  7264     9 
 7260  7261  7264  7265     9 
 7260  7261  7264  7266     9 
 7260  7261  7264  7272     9 
 7262  7261  7264  7265     9 
 7262  7261  7264  7266     9 
 7262  7261  7264  7272     9 
 7263  7261  7264  7265     9 
 7263  7261  7264  7266     9 
 7263  7261  7264  7272     9 
 7261  7264  7266  7267     9 
 7265  7264  7266  7267     9 
 7272  7264  7266  7267     9 
 7261  7264  7272  7273     9 
 7261  7264  7272  7274     9 
 7261  7264  7272  7275     9 
 7265  7264  7272  7273     9 
 7265  7264  7272  7274     9 
 7265  7264  7272  7275     9 
 7266  7264  7272  7273     9 
 7266  7264  7272  7274     9 
 7266  7264  7272  7275     9 
 7264  7266  7267  7268     9 
 7264  7266  7267  7269     9 
 7266  7267  7269  7270     9 
 7266  7267  7269  7271     9 
 7266  7267  7269  7281     9 
 7268  7267  7269  7270     9 
 7268  7267  7269  7271     9 
 7268  7267  7269  7281     9 
 7267  7269  7281  7282     9 
 7267  7269  7281  7283     9 
 7267  7269  7281  7284     9 
 7270  7269  7281  7282     9 
 7270  7269  7281  7283     9 
 7270  7269  7281  7284     9 
 7271  7269  7281  7282     9 
 7271  7269  7281  7283     9 
 7271  7269  7281  7284     9 
 7264  7272  7275  7276     9 
 7273  7272  7275  7276     9 
 7274  7272  7275  7276     9 
 7272  7275  7276  7277     9 
 7272  7275  7276  7278     9 
 7275  7276  7278  7279     9 
 7275  7276  7278  7280     9 
 7275  7276  7278  7328     9 
 7277  7276  7278  7279     9 
 7277  7276  7278  7280     9 
 7277  7276  7278  7328     9 
 7276  7278  7328  7329     9 
 7276  7278  7328  7330     9 
 7276  7278  7328  7331     9 
 7279  7278  7328  7329     9 
 7279  7278  7328  7330     9 
 7279  7278  7328  7331     9 
 7280  7278  7328  7329     9 
 7280  7278  7328  7330     9 
 7280  7278  7328  7331     9 
 7269  7281  7284  7285     9 
 7269  7281  7284  7286     9 
 7269  7281  7284  7287     9 
 7282  7281  7284  7285     9 
 7282  7281  7284  7286     9 
 7282  7281  7284  7287     9 
 7283  7281  7284  7285     9 
 7283  7281  7284  7286     9 
 7283  7281  7284  7287     9 
 7281  7284  7287  7288     9 
 7281  7284  7287  7289     9 
 7281  7284  7287  7290     9 
 7285  7284  7287  7288     9 
 7285  7284  7287  7289     9 
 7285  7284  7287  7290     9 
 7286  7284  7287  7288     9 
 7286  7284  7287  7289     9 
 7286  7284  7287  7290     9 
 7284  7287  7290  7291     9 
 7284  7287  7290  7292     9 
 7284  7287  7290  7293     9 
 7288  7287  7290  7291     9 
 7288  7287  7290  7292     9 
 7288  7287  7290  7293     9 
 7289  7287  7290  7291     9 
 7289  7287  7290  7292     9 
 7289  7287  7290  7293     9 
 7287  7290  7293  7294     9 
 7287  7290  7293  7295     9 
 7287  7290  7293  7296     9 
 7291  7290  7293  7294     9 
 7291  7290  7293  7295     9 
 7291  7290  7293  7296     9 
 7292  7290  7293  7294     9 
 7292  7290  7293  7295     9 
 7292  7290  7293  7296     9 
 7290  7293  7296  7297     9 
 7290  7293  7296  7298     9 
 7290  7293  7296  7299     9 
 7294  7293  7296  7297     9 
 7294  7293  7296  7298     9 
 7294  7293  7296  7299     9 
 7295  7293  7296  7297     9 
 7295  7293  7296  7298     9 
 7295  7293  7296  7299     9 
 7293  7296  7299  7300     9 
 7293  7296  7299  7301     9 
 7297  7296  7299  7300     9 
 7297  7296  7299  7301     9 
 7298  7296  7299  7300     9 
 7298  7296  7299  7301     9 
 7296  7299  7301  7302     9 
 7296  7299  7301  7303     9 
 7300  7299  7301  7302     9 
 7300  7299  7301  7303     9 
 7299  7301  7303  7304     9 
 7299  7301  7303  7305     9 
 7299  7301  7303  7306     9 
 7302  7301  7303  7304     9 
 7302  7301  7303  7305     9 
 7302  7301  7303  7306     9 
 7301  7303  7306  7307     9 
 7301  7303  7306  7308     9 
 7301  7303  7306  7309     9 
 7304  7303  7306  7307     9 
 7304  7303  7306  7308     9 
 7304  7303  7306  7309     9 
 7305  7303  7306  7307     9 
 7305  7303  7306  7308     9 
 7305  7303  7306  7309     9 
 7303  7306  7309  7310     9 
 7303  7306  7309  7311     9 
 7303  7306  7309  7312     9 
 7307  7306  7309  7310     9 
 7307  7306  7309  7311     9 
 7307  7306  7309  7312     9 
 7308  7306  7309  7310     9 
 7308  7306  7309  7311     9 
 7308  7306  7309  7312     9 
 7306  7309  7312  7313     9 
 7306  7309  7312  7314     9 
 7306  7309  7312  7315     9 
 7310  7309  7312  7313     9 
 7310  7309  7312  7314     9 
 7310  7309  7312  7315     9 
 7311  7309  7312  7313     9 
 7311  7309  7312  7314     9 
 7311  7309  7312  7315     9 
 7309  7312  7315  7316     9 
 7309  7312  7315  7317     9 
 7309  7312  7315  7318     9 
 7313  7312  7315  7316     9 
 7313  7312  7315  7317     9 
 7313  7312  7315  7318     9 
 7314  7312  7315  7316     9 
 7314  7312  7315  7317     9 
 7314  7312  7315  7318     9 
 7312  7315  7318  7319     9 
 7312  7315  7318  7320     9 
 7312  7315  7318  7321     9 
 7316  7315  7318  7319     9 
 7316  7315  7318  7320     9 
 7316  7315  7318  7321     9 
 7317  7315  7318  7319     9 
 7317  7315  7318  7320     9 
 7317  7315  7318  7321     9 
 7315  7318  7321  7322     9 
 7315  7318  7321  7323     9 
 7315  7318  7321  7324     9 
 7319  7318  7321  7322     9 
 7319  7318  7321  7323     9 
 7319  7318  7321  7324     9 
 7320  7318  7321  7322     9 
 7320  7318  7321  7323     9 
 7320  7318  7321  7324     9 
 7318  7321  7324  7325     9 
 7318  7321  7324  7326     9 
 7318  7321  7324  7327     9 
 7322  7321  7324  7325     9 
 7322  7321  7324  7326     9 
 7322  7321  7324  7327     9 
 7323  7321  7324  7325     9 
 7323  7321  7324  7326     9 
 7323  7321  7324  7327     9 
 7278  7328  7331  7332     9 
 7278  7328  7331  7333     9 
 7278  7328  7331  7334     9 
 7329  7328  7331  7332     9 
 7329  7328  7331  7333     9 
 7329  7328  7331  7334     9 
 7330  7328  7331  7332     9 
 7330  7328  7331  7333     9 
 7330  7328  7331  7334     9 
 7328  7331  7334  7335     9 
 7328  7331  7334  7336     9 
 7328  7331  7334  7337     9 
 7332  7331  7334  7335     9 
 7332  7331  7334  7336     9 
 7332  7331  7334  7337     9 
 7333  7331  7334  7335     9 
 7333  7331  7334  7336     9 
 7333  7331  7334  7337     9 
 7331  7334  7337  7338     9 
 7331  7334  7337  7339     9 
 7331  7334  7337  7340     9 
 7335  7334  7337  7338     9 
 7335  7334  7337  7339     9 
 7335  7334  7337  7340     9 
 7336  7334  7337  7338     9 
 7336  7334  7337  7339     9 
 7336  7334  7337  7340     9 
 7334  7337  7340  7341     9 
 7334  7337  7340  7342     9 
 7334  7337  7340  7343     9 
 7338  7337  7340  7341     9 
 7338  7337  7340  7342     9 
 7338  7337  7340  7343     9 
 7339  7337  7340  7341     9 
 7339  7337  7340  7342     9 
 7339  7337  7340  7343     9 
 7337  7340  7343  7344     9 
 7337  7340  7343  7345     9 
 7337  7340  7343  7346     9 
 7341  7340  7343  7344     9 
 7341  7340  7343  7345     9 
 7341  7340  7343  7346     9 
 7342  7340  7343  7344     9 
 7342  7340  7343  7345     9 
 7342  7340  7343  7346     9 
 7340  7343  7346  7347     9 
 7340  7343  7346  7348     9 
 7340  7343  7346  7349     9 
 7344  7343  7346  7347     9 
 7344  7343  7346  7348     9 
 7344  7343  7346  7349     9 
 7345  7343  7346  7347     9 
 7345  7343  7346  7348     9 
 7345  7343  7346  7349     9 
 7343  7346  7349  7350     9 
 7343  7346  7349  7351     9 
 7343  7346  7349  7352     9 
 7347  7346  7349  7350     9 
 7347  7346  7349  7351     9 
 7347  7346  7349  7352     9 
 7348  7346  7349  7350     9 
 7348  7346  7349  7351     9 
 7348  7346  7349  7352     9 
 7346  7349  7352  7353     9 
 7346  7349  7352  7354     9 
 7346  7349  7352  7355     9 
 7350  7349  7352  7353     9 
 7350  7349  7352  7354     9 
 7350  7349  7352  7355     9 
 7351  7349  7352  7353     9 
 7351  7349  7352  7354     9 
 7351  7349  7352  7355     9 
 7349  7352  7355  7356     9 
 7349  7352  7355  7357     9 
 7349  7352  7355  7358     9 
 7353  7352  7355  7356     9 
 7353  7352  7355  7357     9 
 7353  7352  7355  7358     9 
 7354  7352  7355  7356     9 
 7354  7352  7355  7357     9 
 7354  7352  7355  7358     9 
 7352  7355  7358  7359     9 
 7352  7355  7358  7360     9 
 7352  7355  7358  7361     9 
 7356  7355  7358  7359     9 
 7356  7355  7358  7360     9 
 7356  7355  7358  7361     9 
 7357  7355  7358  7359     9 
 7357  7355  7358  7360     9 
 7357  7355  7358  7361     9 
 7355  7358  7361  7362     9 
 7355  7358  7361  7363     9 
 7355  7358  7361  7364     9 
 7359  7358  7361  7362     9 
 7359  7358  7361  7363     9 
 7359  7358  7361  7364     9 
 7360  7358  7361  7362     9 
 7360  7358  7361  7363     9 
 7360  7358  7361  7364     9 
 7358  7361  7364  7365     9 
 7358  7361  7364  7366     9 
 7358  7361  7364  7367     9 
 7362  7361  7364  7365     9 
 7362  7361  7364  7366     9 
 7362  7361  7364  7367     9 
 7363  7361  7364  7365     9 
 7363  7361  7364  7366     9 
 7363  7361  7364  7367     9 
 7361  7364  7367  7368     9 
 7361  7364  7367  7369     9 
 7361  7364  7367  7370     9 
 7365  7364  7367  7368     9 
 7365  7364  7367  7369     9 
 7365  7364  7367  7370     9 
 7366  7364  7367  7368     9 
 7366  7364  7367  7369     9 
 7366  7364  7367  7370     9 
 7375  7371  7372  7373     9 
 7375  7371  7372  7374     9 
 7375  7371  7372  7387     9 
 7379  7371  7372  7373     9 
 7379  7371  7372  7374     9 
 7379  7371  7372  7387     9 
 7383  7371  7372  7373     9 
 7383  7371  7372  7374     9 
 7383  7371  7372  7387     9 
 7372  7371  7375  7376     9 
 7372  7371  7375  7377     9 
 7372  7371  7375  7378     9 
 7379  7371  7375  7376     9 
 7379  7371  7375  7377     9 
 7379  7371  7375  7378     9 
 7383  7371  7375  7376     9 
 7383  7371  7375  7377     9 
 7383  7371  7375  7378     9 
 7372  7371  7379  7380     9 
 7372  7371  7379  7381     9 
 7372  7371  7379  7382     9 
 7375  7371  7379  7380     9 
 7375  7371  7379  7381     9 
 7375  7371  7379  7382     9 
 7383  7371  7379  7380     9 
 7383  7371  7379  7381     9 
 7383  7371  7379  7382     9 
 7372  7371  7383  7384     9 
 7372  7371  7383  7385     9 
 7372  7371  7383  7386     9 
 7375  7371  7383  7384     9 
 7375  7371  7383  7385     9 
 7375  7371  7383  7386     9 
 7379  7371  7383  7384     9 
 7379  7371  7383  7385     9 
 7379  7371  7383  7386     9 
 7371  7372  7387  7388     9 
 7371  7372  7387  7389     9 
 7371  7372  7387  7393     9 
 7373  7372  7387  7388     9 
 7373  7372  7387  7389     9 
 7373  7372  7387  7393     9 
 7374  7372  7387  7388     9 
 7374  7372  7387  7389     9 
 7374  7372  7387  7393     9 
 7372  7387  7393  7390     9 
 7388  7387  7393  7390     9 
 7389  7387  7393  7390     9 
 7391  7390  7393  7387     9 
 7392  7390  7393  7387     9 
 7394  7390  7393  7387     9 
 7391  7390  7394  7395     9 
 7392  7390  7394  7395     9 
 7393  7390  7394  7395     9 
 7390  7394  7395  7396     9 
 7390  7394  7395  7397     9 
 7390  7394  7395  7398     9 
 7394  7395  7398  7399     9 
 7394  7395  7398  7400     9 
 7394  7395  7398  7406     9 
 7396  7395  7398  7399     9 
 7396  7395  7398  7400     9 
 7396  7395  7398  7406     9 
 7397  7395  7398  7399     9 
 7397  7395  7398  7400     9 
 7397  7395  7398  7406     9 
 7395  7398  7400  7401     9 
 7399  7398  7400  7401     9 
 7406  7398  7400  7401     9 
 7395  7398  7406  7407     9 
 7395  7398  7406  7408     9 
 7395  7398  7406  7409     9 
 7399  7398  7406  7407     9 
 7399  7398  7406  7408     9 
 7399  7398  7406  7409     9 
 7400  7398  7406  7407     9 
 7400  7398  7406  7408     9 
 7400  7398  7406  7409     9 
 7398  7400  7401  7402     9 
 7398  7400  7401  7403     9 
 7400  7401  7403  7404     9 
 7400  7401  7403  7405     9 
 7400  7401  7403  7415     9 
 7402  7401  7403  7404     9 
 7402  7401  7403  7405     9 
 7402  7401  7403  7415     9 
 7401  7403  7415  7416     9 
 7401  7403  7415  7417     9 
 7401  7403  7415  7418     9 
 7404  7403  7415  7416     9 
 7404  7403  7415  7417     9 
 7404  7403  7415  7418     9 
 7405  7403  7415  7416     9 
 7405  7403  7415  7417     9 
 7405  7403  7415  7418     9 
 7398  7406  7409  7410     9 
 7407  7406  7409  7410     9 
 7408  7406  7409  7410     9 
 7406  7409  7410  7411     9 
 7406  7409  7410  7412     9 
 7409  7410  7412  7413     9 
 7409  7410  7412  7414     9 
 7409  7410  7412  7462     9 
 7411  7410  7412  7413     9 
 7411  7410  7412  7414     9 
 7411  7410  7412  7462     9 
 7410  7412  7462  7463     9 
 7410  7412  7462  7464     9 
 7410  7412  7462  7465     9 
 7413  7412  7462  7463     9 
 7413  7412  7462  7464     9 
 7413  7412  7462  7465     9 
 7414  7412  7462  7463     9 
 7414  7412  7462  7464     9 
 7414  7412  7462  7465     9 
 7403  7415  7418  7419     9 
 7403  7415  7418  7420     9 
 7403  7415  7418  7421     9 
 7416  7415  7418  7419     9 
 7416  7415  7418  7420     9 
 7416  7415  7418  7421     9 
 7417  7415  7418  7419     9 
 7417  7415  7418  7420     9 
 7417  7415  7418  7421     9 
 7415  7418  7421  7422     9 
 7415  7418  7421  7423     9 
 7415  7418  7421  7424     9 
 7419  7418  7421  7422     9 
 7419  7418  7421  7423     9 
 7419  7418  7421  7424     9 
 7420  7418  7421  7422     9 
 7420  7418  7421  7423     9 
 7420  7418  7421  7424     9 
 7418  7421  7424  7425     9 
 7418  7421  7424  7426     9 
 7418  7421  7424  7427     9 
 7422  7421  7424  7425     9 
 7422  7421  7424  7426     9 
 7422  7421  7424  7427     9 
 7423  7421  7424  7425     9 
 7423  7421  7424  7426     9 
 7423  7421  7424  7427     9 
 7421  7424  7427  7428     9 
 7421  7424  7427  7429     9 
 7421  7424  7427  7430     9 
 7425  7424  7427  7428     9 
 7425  7424  7427  7429     9 
 7425  7424  7427  7430     9 
 7426  7424  7427  7428     9 
 7426  7424  7427  7429     9 
 7426  7424  7427  7430     9 
 7424  7427  7430  7431     9 
 7424  7427  7430  7432     9 
 7424  7427  7430  7433     9 
 7428  7427  7430  7431     9 
 7428  7427  7430  7432     9 
 7428  7427  7430  7433     9 
 7429  7427  7430  7431     9 
 7429  7427  7430  7432     9 
 7429  7427  7430  7433     9 
 7427  7430  7433  7434     9 
 7427  7430  7433  7435     9 
 7431  7430  7433  7434     9 
 7431  7430  7433  7435     9 
 7432  7430  7433  7434     9 
 7432  7430  7433  7435     9 
 7430  7433  7435  7436     9 
 7430  7433  7435  7437     9 
 7434  7433  7435  7436     9 
 7434  7433  7435  7437     9 
 7433  7435  7437  7438     9 
 7433  7435  7437  7439     9 
 7433  7435  7437  7440     9 
 7436  7435  7437  7438     9 
 7436  7435  7437  7439     9 
 7436  7435  7437  7440     9 
 7435  7437  7440  7441     9 
 7435  7437  7440  7442     9 
 7435  7437  7440  7443     9 
 7438  7437  7440  7441     9 
 7438  7437  7440  7442     9 
 7438  7437  7440  7443     9 
 7439  7437  7440  7441     9 
 7439  7437  7440  7442     9 
 7439  7437  7440  7443     9 
 7437  7440  7443  7444     9 
 7437  7440  7443  7445     9 
 7437  7440  7443  7446     9 
 7441  7440  7443  7444     9 
 7441  7440  7443  7445     9 
 7441  7440  7443  7446     9 
 7442  7440  7443  7444     9 
 7442  7440  7443  7445     9 
 7442  7440  7443  7446     9 
 7440  7443  7446  7447     9 
 7440  7443  7446  7448     9 
 7440  7443  7446  7449     9 
 7444  7443  7446  7447     9 
 7444  7443  7446  7448     9 
 7444  7443  7446  7449     9 
 7445  7443  7446  7447     9 
 7445  7443  7446  7448     9 
 7445  7443  7446  7449     9 
 7443  7446  7449  7450     9 
 7443  7446  7449  7451     9 
 7443  7446  7449  7452     9 
 7447  7446  7449  7450     9 
 7447  7446  7449  7451     9 
 7447  7446  7449  7452     9 
 7448  7446  7449  7450     9 
 7448  7446  7449  7451     9 
 7448  7446  7449  7452     9 
 7446  7449  7452  7453     9 
 7446  7449  7452  7454     9 
 7446  7449  7452  7455     9 
 7450  7449  7452  7453     9 
 7450  7449  7452  7454     9 
 7450  7449  7452  7455     9 
 7451  7449  7452  7453     9 
 7451  7449  7452  7454     9 
 7451  7449  7452  7455     9 
 7449  7452  7455  7456     9 
 7449  7452  7455  7457     9 
 7449  7452  7455  7458     9 
 7453  7452  7455  7456     9 
 7453  7452  7455  7457     9 
 7453  7452  7455  7458     9 
 7454  7452  7455  7456     9 
 7454  7452  7455  7457     9 
 7454  7452  7455  7458     9 
 7452  7455  7458  7459     9 
 7452  7455  7458  7460     9 
 7452  7455  7458  7461     9 
 7456  7455  7458  7459     9 
 7456  7455  7458  7460     9 
 7456  7455  7458  7461     9 
 7457  7455  7458  7459     9 
 7457  7455  7458  7460     9 
 7457  7455  7458  7461     9 
 7412  7462  7465  7466     9 
 7412  7462  7465  7467     9 
 7412  7462  7465  7468     9 
 7463  7462  7465  7466     9 
 7463  7462  7465  7467     9 
 7463  7462  7465  7468     9 
 7464  7462  7465  7466     9 
 7464  7462  7465  7467     9 
 7464  7462  7465  7468     9 
 7462  7465  7468  7469     9 
 7462  7465  7468  7470     9 
 7462  7465  7468  7471     9 
 7466  7465  7468  7469     9 
 7466  7465  7468  7470     9 
 7466  7465  7468  7471     9 
 7467  7465  7468  7469     9 
 7467  7465  7468  7470     9 
 7467  7465  7468  7471     9 
 7465  7468  7471  7472     9 
 7465  7468  7471  7473     9 
 7465  7468  7471  7474     9 
 7469  7468  7471  7472     9 
 7469  7468  7471  7473     9 
 7469  7468  7471  7474     9 
 7470  7468  7471  7472     9 
 7470  7468  7471  7473     9 
 7470  7468  7471  7474     9 
 7468  7471  7474  7475     9 
 7468  7471  7474  7476     9 
 7468  7471  7474  7477     9 
 7472  7471  7474  7475     9 
 7472  7471  7474  7476     9 
 7472  7471  7474  7477     9 
 7473  7471  7474  7475     9 
 7473  7471  7474  7476     9 
 7473  7471  7474  7477     9 
 7471  7474  7477  7478     9 
 7471  7474  7477  7479     9 
 7471  7474  7477  7480     9 
 7475  7474  7477  7478     9 
 7475  7474  7477  7479     9 
 7475  7474  7477  7480     9 
 7476  7474  7477  7478     9 
 7476  7474  7477  7479     9 
 7476  7474  7477  7480     9 
 7474  7477  7480  7481     9 
 7474  7477  7480  7482     9 
 7474  7477  7480  7483     9 
 7478  7477  7480  7481     9 
 7478  7477  7480  7482     9 
 7478  7477  7480  7483     9 
 7479  7477  7480  7481     9 
 7479  7477  7480  7482     9 
 7479  7477  7480  7483     9 
 7477  7480  7483  7484     9 
 7477  7480  7483  7485     9 
 7477  7480  7483  7486     9 
 7481  7480  7483  7484     9 
 7481  7480  7483  7485     9 
 7481  7480  7483  7486     9 
 7482  7480  7483  7484     9 
 7482  7480  7483  7485     9 
 7482  7480  7483  7486     9 
 7480  7483  7486  7487     9 
 7480  7483  7486  7488     9 
 7480  7483  7486  7489     9 
 7484  7483  7486  7487     9 
 7484  7483  7486  7488     9 
 7484  7483  7486  7489     9 
 7485  7483  7486  7487     9 
 7485  7483  7486  7488     9 
 7485  7483  7486  7489     9 
 7483  7486  7489  7490     9 
 7483  7486  7489  7491     9 
 7483  7486  7489  7492     9 
 7487  7486  7489  7490     9 
 7487  7486  7489  7491     9 
 7487  7486  7489  7492     9 
 7488  7486  7489  7490     9 
 7488  7486  7489  7491     9 
 7488  7486  7489  7492     9 
 7486  7489  7492  7493     9 
 7486  7489  7492  7494     9 
 7486  7489  7492  7495     9 
 7490  7489  7492  7493     9 
 7490  7489  7492  7494     9 
 7490  7489  7492  7495     9 
 7491  7489  7492  7493     9 
 7491  7489  7492  7494     9 
 7491  7489  7492  7495     9 
 7489  7492  7495  7496     9 
 7489  7492  7495  7497     9 
 7489  7492  7495  7498     9 
 7493  7492  7495  7496     9 
 7493  7492  7495  7497     9 
 7493  7492  7495  7498     9 
 7494  7492  7495  7496     9 
 7494  7492  7495  7497     9 
 7494  7492  7495  7498     9 
 7492  7495  7498  7499     9 
 7492  7495  7498  7500     9 
 7492  7495  7498  7501     9 
 7496  7495  7498  7499     9 
 7496  7495  7498  7500     9 
 7496  7495  7498  7501     9 
 7497  7495  7498  7499     9 
 7497  7495  7498  7500     9 
 7497  7495  7498  7501     9 
 7495  7498  7501  7502     9 
 7495  7498  7501  7503     9 
 7495  7498  7501  7504     9 
 7499  7498  7501  7502     9 
 7499  7498  7501  7503     9 
 7499  7498  7501  7504     9 
 7500  7498  7501  7502     9 
 7500  7498  7501  7503     9 
 7500  7498  7501  7504     9 
 7509  7505  7506  7507     9 
 7509  7505  7506  7508     9 
 7509  7505  7506  7521     9 
 7513  7505  7506  7507     9 
 7513  7505  7506  7508     9 
 7513  7505  7506  7521     9 
 7517  7505  7506  7507     9 
 7517  7505  7506  7508     9 
 7517  7505  7506  7521     9 
 7506  7505  7509  7510     9 
 7506  7505  7509  7511     9 
 7506  7505  7509  7512     9 
 7513  7505  7509  7510     9 
 7513  7505  7509  7511     9 
 7513  7505  7509  7512     9 
 7517  7505  7509  7510     9 
 7517  7505  7509  7511     9 
 7517  7505  7509  7512     9 
 7506  7505  7513  7514     9 
 7506  7505  7513  7515     9 
 7506  7505  7513  7516     9 
 7509  7505  7513  7514     9 
 7509  7505  7513  7515     9 
 7509  7505  7513  7516     9 
 7517  7505  7513  7514     9 
 7517  7505  7513  7515     9 
 7517  7505  7513  7516     9 
 7506  7505  7517  7518     9 
 7506  7505  7517  7519     9 
 7506  7505  7517  7520     9 
 7509  7505  7517  7518     9 
 7509  7505  7517  7519     9 
 7509  7505  7517  7520     9 
 7513  7505  7517  7518     9 
 7513  7505  7517  7519     9 
 7513  7505  7517  7520     9 
 7505  7506  7521  7522     9 
 7505  7506  7521  7523     9 
 7505  7506  7521  7527     9 
 7507  7506  7521  7522     9 
 7507  7506  7521  7523     9 
 7507  7506  7521  7527     9 
 7508  7506  7521  7522     9 
 7508  7506  7521  7523     9 
 7508  7506  7521  7527     9 
 7506  7521  7527  7524     9 
 7522  7521  7527  7524     9 
 7523  7521  7527  7524     9 
 7525  7524  7527  7521     9 
 7526  7524  7527  7521     9 
 7528  7524  7527  7521     9 
 7525  7524  7528  7529     9 
 7526  7524  7528  7529     9 
 7527  7524  7528  7529     9 
 7524  7528  7529  7530     9 
 7524  7528  7529  7531     9 
 7524  7528  7529  7532     9 
 7528  7529  7532  7533     9 
 7528  7529  7532  7534     9 
 7528  7529  7532  7540     9 
 7530  7529  7532  7533     9 
 7530  7529  7532  7534     9 
 7530  7529  7532  7540     9 
 7531  7529  7532  7533     9 
 7531  7529  7532  7534     9 
 7531  7529  7532  7540     9 
 7529  7532  7534  7535     9 
 7533  7532  7534  7535     9 
 7540  7532  7534  7535     9 
 7529  7532  7540  7541     9 
 7529  7532  7540  7542     9 
 7529  7532  7540  7543     9 
 7533  7532  7540  7541     9 
 7533  7532  7540  7542     9 
 7533  7532  7540  7543     9 
 7534  7532  7540  7541     9 
 7534  7532  7540  7542     9 
 7534  7532  7540  7543     9 
 7532  7534  7535  7536     9 
 7532  7534  7535  7537     9 
 7534  7535  7537  7538     9 
 7534  7535  7537  7539     9 
 7534  7535  7537  7549     9 
 7536  7535  7537  7538     9 
 7536  7535  7537  7539     9 
 7536  7535  7537  7549     9 
 7535  7537  7549  7550     9 
 7535  7537  7549  7551     9 
 7535  7537  7549  7552     9 
 7538  7537  7549  7550     9 
 7538  7537  7549  7551     9 
 7538  7537  7549  7552     9 
 7539  7537  7549  7550     9 
 7539  7537  7549  7551     9 
 7539  7537  7549  7552     9 
 7532  7540  7543  7544     9 
 7541  7540  7543  7544     9 
 7542  7540  7543  7544     9 
 7540  7543  7544  7545     9 
 7540  7543  7544  7546     9 
 7543  7544  7546  7547     9 
 7543  7544  7546  7548     9 
 7543  7544  7546  7596     9 
 7545  7544  7546  7547     9 
 7545  7544  7546  7548     9 
 7545  7544  7546  7596     9 
 7544  7546  7596  7597     9 
 7544  7546  7596  7598     9 
 7544  7546  7596  7599     9 
 7547  7546  7596  7597     9 
 7547  7546  7596  7598     9 
 7547  7546  7596  7599     9 
 7548  7546  7596  7597     9 
 7548  7546  7596  7598     9 
 7548  7546  7596  7599     9 
 7537  7549  7552  7553     9 
 7537  7549  7552  7554     9 
 7537  7549  7552  7555     9 
 7550  7549  7552  7553     9 
 7550  7549  7552  7554     9 
 7550  7549  7552  7555     9 
 7551  7549  7552  7553     9 
 7551  7549  7552  7554     9 
 7551  7549  7552  7555     9 
 7549  7552  7555  7556     9 
 7549  7552  7555  7557     9 
 7549  7552  7555  7558     9 
 7553  7552  7555  7556     9 
 7553  7552  7555  7557     9 
 7553  7552  7555  7558     9 
 7554  7552  7555  7556     9 
 7554  7552  7555  7557     9 
 7554  7552  7555  7558     9 
 7552  7555  7558  7559     9 
 7552  7555  7558  7560     9 
 7552  7555  7558  7561     9 
 7556  7555  7558  7559     9 
 7556  7555  7558  7560     9 
 7556  7555  7558  7561     9 
 7557  7555  7558  7559     9 
 7557  7555  7558  7560     9 
 7557  7555  7558  7561     9 
 7555  7558  7561  7562     9 
 7555  7558  7561  7563     9 
 7555  7558  7561  7564     9 
 7559  7558  7561  7562     9 
 7559  7558  7561  7563     9 
 7559  7558  7561  7564     9 
 7560  7558  7561  7562     9 
 7560  7558  7561  7563     9 
 7560  7558  7561  7564     9 
 7558  7561  7564  7565     9 
 7558  7561  7564  7566     9 
 7558  7561  7564  7567     9 
 7562  7561  7564  7565     9 
 7562  7561  7564  7566     9 
 7562  7561  7564  7567     9 
 7563  7561  7564  7565     9 
 7563  7561  7564  7566     9 
 7563  7561  7564  7567     9 
 7561  7564  7567  7568     9 
 7561  7564  7567  7569     9 
 7565  7564  7567  7568     9 
 7565  7564  7567  7569     9 
 7566  7564  7567  7568     9 
 7566  7564  7567  7569     9 
 7564  7567  7569  7570     9 
 7564  7567  7569  7571     9 
 7568  7567  7569  7570     9 
 7568  7567  7569  7571     9 
 7567  7569  7571  7572     9 
 7567  7569  7571  7573     9 
 7567  7569  7571  7574     9 
 7570  7569  7571  7572     9 
 7570  7569  7571  7573     9 
 7570  7569  7571  7574     9 
 7569  7571  7574  7575     9 
 7569  7571  7574  7576     9 
 7569  7571  7574  7577     9 
 7572  7571  7574  7575     9 
 7572  7571  7574  7576     9 
 7572  7571  7574  7577     9 
 7573  7571  7574  7575     9 
 7573  7571  7574  7576     9 
 7573  7571  7574  7577     9 
 7571  7574  7577  7578     9 
 7571  7574  7577  7579     9 
 7571  7574  7577  7580     9 
 7575  7574  7577  7578     9 
 7575  7574  7577  7579     9 
 7575  7574  7577  7580     9 
 7576  7574  7577  7578     9 
 7576  7574  7577  7579     9 
 7576  7574  7577  7580     9 
 7574  7577  7580  7581     9 
 7574  7577  7580  7582     9 
 7574  7577  7580  7583     9 
 7578  7577  7580  7581     9 
 7578  7577  7580  7582     9 
 7578  7577  7580  7583     9 
 7579  7577  7580  7581     9 
 7579  7577  7580  7582     9 
 7579  7577  7580  7583     9 
 7577  7580  7583  7584     9 
 7577  7580  7583  7585     9 
 7577  7580  7583  7586     9 
 7581  7580  7583  7584     9 
 7581  7580  7583  7585     9 
 7581  7580  7583  7586     9 
 7582  7580  7583  7584     9 
 7582  7580  7583  7585     9 
 7582  7580  7583  7586     9 
 7580  7583  7586  7587     9 
 7580  7583  7586  7588     9 
 7580  7583  7586  7589     9 
 7584  7583  7586  7587     9 
 7584  7583  7586  7588     9 
 7584  7583  7586  7589     9 
 7585  7583  7586  7587     9 
 7585  7583  7586  7588     9 
 7585  7583  7586  7589     9 
 7583  7586  7589  7590     9 
 7583  7586  7589  7591     9 
 7583  7586  7589  7592     9 
 7587  7586  7589  7590     9 
 7587  7586  7589  7591     9 
 7587  7586  7589  7592     9 
 7588  7586  7589  7590     9 
 7588  7586  7589  7591     9 
 7588  7586  7589  7592     9 
 7586  7589  7592  7593     9 
 7586  7589  7592  7594     9 
 7586  7589  7592  7595     9 
 7590  7589  7592  7593     9 
 7590  7589  7592  7594     9 
 7590  7589  7592  7595     9 
 7591  7589  7592  7593     9 
 7591  7589  7592  7594     9 
 7591  7589  7592  7595     9 
 7546  7596  7599  7600     9 
 7546  7596  7599  7601     9 
 7546  7596  7599  7602     9 
 7597  7596  7599  7600     9 
 7597  7596  7599  7601     9 
 7597  7596  7599  7602     9 
 7598  7596  7599  7600     9 
 7598  7596  7599  7601     9 
 7598  7596  7599  7602     9 
 7596  7599  7602  7603     9 
 7596  7599  7602  7604     9 
 7596  7599  7602  7605     9 
 7600  7599  7602  7603     9 
 7600  7599  7602  7604     9 
 7600  7599  7602  7605     9 
 7601  7599  7602  7603     9 
 7601  7599  7602  7604     9 
 7601  7599  7602  7605     9 
 7599  7602  7605  7606     9 
 7599  7602  7605  7607     9 
 7599  7602  7605  7608     9 
 7603  7602  7605  7606     9 
 7603  7602  7605  7607     9 
 7603  7602  7605  7608     9 
 7604  7602  7605  7606     9 
 7604  7602  7605  7607     9 
 7604  7602  7605  7608     9 
 7602  7605  7608  7609     9 
 7602  7605  7608  7610     9 
 7602  7605  7608  7611     9 
 7606  7605  7608  7609     9 
 7606  7605  7608  7610     9 
 7606  7605  7608  7611     9 
 7607  7605  7608  7609     9 
 7607  7605  7608  7610     9 
 7607  7605  7608  7611     9 
 7605  7608  7611  7612     9 
 7605  7608  7611  7613     9 
 7605  7608  7611  7614     9 
 7609  7608  7611  7612     9 
 7609  7608  7611  7613     9 
 7609  7608  7611  7614     9 
 7610  7608  7611  7612     9 
 7610  7608  7611  7613     9 
 7610  7608  7611  7614     9 
 7608  7611  7614  7615     9 
 7608  7611  7614  7616     9 
 7608  7611  7614  7617     9 
 7612  7611  7614  7615     9 
 7612  7611  7614  7616     9 
 7612  7611  7614  7617     9 
 7613  7611  7614  7615     9 
 7613  7611  7614  7616     9 
 7613  7611  7614  7617     9 
 7611  7614  7617  7618     9 
 7611  7614  7617  7619     9 
 7611  7614  7617  7620     9 
 7615  7614  7617  7618     9 
 7615  7614  7617  7619     9 
 7615  7614  7617  7620     9 
 7616  7614  7617  7618     9 
 7616  7614  7617  7619     9 
 7616  7614  7617  7620     9 
 7614  7617  7620  7621     9 
 7614  7617  7620  7622     9 
 7614  7617  7620  7623     9 
 7618  7617  7620  7621     9 
 7618  7617  7620  7622     9 
 7618  7617  7620  7623     9 
 7619  7617  7620  7621     9 
 7619  7617  7620  7622     9 
 7619  7617  7620  7623     9 
 7617  7620  7623  7624     9 
 7617  7620  7623  7625     9 
 7617  7620  7623  7626     9 
 7621  7620  7623  7624     9 
 7621  7620  7623  7625     9 
 7621  7620  7623  7626     9 
 7622  7620  7623  7624     9 
 7622  7620  7623  7625     9 
 7622  7620  7623  7626     9 
 7620  7623  7626  7627     9 
 7620  7623  7626  7628     9 
 7620  7623  7626  7629     9 
 7624  7623  7626  7627     9 
 7624  7623  7626  7628     9 
 7624  7623  7626  7629     9 
 7625  7623  7626  7627     9 
 7625  7623  7626  7628     9 
 7625  7623  7626  7629     9 
 7623  7626  7629  7630     9 
 7623  7626  7629  7631     9 
 7623  7626  7629  7632     9 
 7627  7626  7629  7630     9 
 7627  7626  7629  7631     9 
 7627  7626  7629  7632     9 
 7628  7626  7629  7630     9 
 7628  7626  7629  7631     9 
 7628  7626  7629  7632     9 
 7626  7629  7632  7633     9 
 7626  7629  7632  7634     9 
 7626  7629  7632  7635     9 
 7630  7629  7632  7633     9 
 7630  7629  7632  7634     9 
 7630  7629  7632  7635     9 
 7631  7629  7632  7633     9 
 7631  7629  7632  7634     9 
 7631  7629  7632  7635     9 
 7629  7632  7635  7636     9 
 7629  7632  7635  7637     9 
 7629  7632  7635  7638     9 
 7633  7632  7635  7636     9 
 7633  7632  7635  7637     9 
 7633  7632  7635  7638     9 
 7634  7632  7635  7636     9 
 7634  7632  7635  7637     9 
 7634  7632  7635  7638     9 
 7643  7639  7640  7641     9 
 7643  7639  7640  7642     9 
 7643  7639  7640  7655     9 
 7647  7639  7640  7641     9 
 7647  7639  7640  7642     9 
 7647  7639  7640  7655     9 
 7651  7639  7640  7641     9 
 7651  7639  7640  7642     9 
 7651  7639  7640  7655     9 
 7640  7639  7643  7644     9 
 7640  7639  7643  7645     9 
 7640  7639  7643  7646     9 
 7647  7639  7643  7644     9 
 7647  7639  7643  7645     9 
 7647  7639  7643  7646     9 
 7651  7639  7643  7644     9 
 7651  7639  7643  7645     9 
 7651  7639  7643  7646     9 
 7640  7639  7647  7648     9 
 7640  7639  7647  7649     9 
 7640  7639  7647  7650     9 
 7643  7639  7647  7648     9 
 7643  7639  7647  7649     9 
 7643  7639  7647  7650     9 
 7651  7639  7647  7648     9 
 7651  7639  7647  7649     9 
 7651  7639  7647  7650     9 
 7640  7639  7651  7652     9 
 7640  7639  7651  7653     9 
 7640  7639  7651  7654     9 
 7643  7639  7651  7652     9 
 7643  7639  7651  7653     9 
 7643  7639  7651  7654     9 
 7647  7639  7651  7652     9 
 7647  7639  7651  7653     9 
 7647  7639  7651  7654     9 
 7639  7640  7655  7656     9 
 7639  7640  7655  7657     9 
 7639  7640  7655  7661     9 
 7641  7640  7655  7656     9 
 7641  7640  7655  7657     9 
 7641  7640  7655  7661     9 
 7642  7640  7655  7656     9 
 7642  7640  7655  7657     9 
 7642  7640  7655  7661     9 
 7640  7655  7661  7658     9 
 7656  7655  7661  7658     9 
 7657  7655  7661  7658     9 
 7659  7658  7661  7655     9 
 7660  7658  7661  7655     9 
 7662  7658  7661  7655     9 
 7659  7658  7662  7663     9 
 7660  7658  7662  7663     9 
 7661  7658  7662  7663     9 
 7658  7662  7663  7664     9 
 7658  7662  7663  7665     9 
 7658  7662  7663  7666     9 
 7662  7663  7666  7667     9 
 7662  7663  7666  7668     9 
 7662  7663  7666  7674     9 
 7664  7663  7666  7667     9 
 7664  7663  7666  7668     9 
 7664  7663  7666  7674     9 
 7665  7663  7666  7667     9 
 7665  7663  7666  7668     9 
 7665  7663  7666  7674     9 
 7663  7666  7668  7669     9 
 7667  7666  7668  7669     9 
 7674  7666  7668  7669     9 
 7663  7666  7674  7675     9 
 7663  7666  7674  7676     9 
 7663  7666  7674  7677     9 
 7667  7666  7674  7675     9 
 7667  7666  7674  7676     9 
 7667  7666  7674  7677     9 
 7668  7666  7674  7675     9 
 7668  7666  7674  7676     9 
 7668  7666  7674  7677     9 
 7666  7668  7669  7670     9 
 7666  7668  7669  7671     9 
 7668  7669  7671  7672     9 
 7668  7669  7671  7673     9 
 7668  7669  7671  7683     9 
 7670  7669  7671  7672     9 
 7670  7669  7671  7673     9 
 7670  7669  7671  7683     9 
 7669  7671  7683  7684     9 
 7669  7671  7683  7685     9 
 7669  7671  7683  7686     9 
 7672  7671  7683  7684     9 
 7672  7671  7683  7685     9 
 7672  7671  7683  7686     9 
 7673  7671  7683  7684     9 
 7673  7671  7683  7685     9 
 7673  7671  7683  7686     9 
 7666  7674  7677  7678     9 
 7675  7674  7677  7678     9 
 7676  7674  7677  7678     9 
 7674  7677  7678  7679     9 
 7674  7677  7678  7680     9 
 7677  7678  7680  7681     9 
 7677  7678  7680  7682     9 
 7677  7678  7680  7730     9 
 7679  7678  7680  7681     9 
 7679  7678  7680  7682     9 
 7679  7678  7680  7730     9 
 7678  7680  7730  7731     9 
 7678  7680  7730  7732     9 
 7678  7680  7730  7733     9 
 7681  7680  7730  7731     9 
 7681  7680  7730  7732     9 
 7681  7680  7730  7733     9 
 7682  7680  7730  7731     9 
 7682  7680  7730  7732     9 
 7682  7680  7730  7733     9 
 7671  7683  7686  7687     9 
 7671  7683  7686  7688     9 
 7671  7683  7686  7689     9 
 7684  7683  7686  7687     9 
 7684  7683  7686  7688     9 
 7684  7683  7686  7689     9 
 7685  7683  7686  7687     9 
 7685  7683  7686  7688     9 
 7685  7683  7686  7689     9 
 7683  7686  7689  7690     9 
 7683  7686  7689  7691     9 
 7683  7686  7689  7692     9 
 7687  7686  7689  7690     9 
 7687  7686  7689  7691     9 
 7687  7686  7689  7692     9 
 7688  7686  7689  7690     9 
 7688  7686  7689  7691     9 
 7688  7686  7689  7692     9 
 7686  7689  7692  7693     9 
 7686  7689  7692  7694     9 
 7686  7689  7692  7695     9 
 7690  7689  7692  7693     9 
 7690  7689  7692  7694     9 
 7690  7689  7692  7695     9 
 7691  7689  7692  7693     9 
 7691  7689  7692  7694     9 
 7691  7689  7692  7695     9 
 7689  7692  7695  7696     9 
 7689  7692  7695  7697     9 
 7689  7692  7695  7698     9 
 7693  7692  7695  7696     9 
 7693  7692  7695  7697     9 
 7693  7692  7695  7698     9 
 7694  7692  7695  7696     9 
 7694  7692  7695  7697     9 
 7694  7692  7695  7698     9 
 7692  7695  7698  7699     9 
 7692  7695  7698  7700     9 
 7692  7695  7698  7701     9 
 7696  7695  7698  7699     9 
 7696  7695  7698  7700     9 
 7696  7695  7698  7701     9 
 7697  7695  7698  7699     9 
 7697  7695  7698  7700     9 
 7697  7695  7698  7701     9 
 7695  7698  7701  7702     9 
 7695  7698  7701  7703     9 
 7699  7698  7701  7702     9 
 7699  7698  7701  7703     9 
 7700  7698  7701  7702     9 
 7700  7698  7701  7703     9 
 7698  7701  7703  7704     9 
 7698  7701  7703  7705     9 
 7702  7701  7703  7704     9 
 7702  7701  7703  7705     9 
 7701  7703  7705  7706     9 
 7701  7703  7705  7707     9 
 7701  7703  7705  7708     9 
 7704  7703  7705  7706     9 
 7704  7703  7705  7707     9 
 7704  7703  7705  7708     9 
 7703  7705  7708  7709     9 
 7703  7705  7708  7710     9 
 7703  7705  7708  7711     9 
 7706  7705  7708  7709     9 
 7706  7705  7708  7710     9 
 7706  7705  7708  7711     9 
 7707  7705  7708  7709     9 
 7707  7705  7708  7710     9 
 7707  7705  7708  7711     9 
 7705  7708  7711  7712     9 
 7705  7708  7711  7713     9 
 7705  7708  7711  7714     9 
 7709  7708  7711  7712     9 
 7709  7708  7711  7713     9 
 7709  7708  7711  7714     9 
 7710  7708  7711  7712     9 
 7710  7708  7711  7713     9 
 7710  7708  7711  7714     9 
 7708  7711  7714  7715     9 
 7708  7711  7714  7716     9 
 7708  7711  7714  7717     9 
 7712  7711  7714  7715     9 
 7712  7711  7714  7716     9 
 7712  7711  7714  7717     9 
 7713  7711  7714  7715     9 
 7713  7711  7714  7716     9 
 7713  7711  7714  7717     9 
 7711  7714  7717  7718     9 
 7711  7714  7717  7719     9 
 7711  7714  7717  7720     9 
 7715  7714  7717  7718     9 
 7715  7714  7717  7719     9 
 7715  7714  7717  7720     9 
 7716  7714  7717  7718     9 
 7716  7714  7717  7719     9 
 7716  7714  7717  7720     9 
 7714  7717  7720  7721     9 
 7714  7717  7720  7722     9 
 7714  7717  7720  7723     9 
 7718  7717  7720  7721     9 
 7718  7717  7720  7722     9 
 7718  7717  7720  7723     9 
 7719  7717  7720  7721     9 
 7719  7717  7720  7722     9 
 7719  7717  7720  7723     9 
 7717  7720  7723  7724     9 
 7717  7720  7723  7725     9 
 7717  7720  7723  7726     9 
 7721  7720  7723  7724     9 
 7721  7720  7723  7725     9 
 7721  7720  7723  7726     9 
 7722  7720  7723  7724     9 
 7722  7720  7723  7725     9 
 7722  7720  7723  7726     9 
 7720  7723  7726  7727     9 
 7720  7723  7726  7728     9 
 7720  7723  7726  7729     9 
 7724  7723  7726  7727     9 
 7724  7723  7726  7728     9 
 7724  7723  7726  7729     9 
 7725  7723  7726  7727     9 
 7725  7723  7726  7728     9 
 7725  7723  7726  7729     9 
 7680  7730  7733  7734     9 
 7680  7730  7733  7735     9 
 7680  7730  7733  7736     9 
 7731  7730  7733  7734     9 
 7731  7730  7733  7735     9 
 7731  7730  7733  7736     9 
 7732  7730  7733  7734     9 
 7732  7730  7733  7735     9 
 7732  7730  7733  7736     9 
 7730  7733  7736  7737     9 
 7730  7733  7736  7738     9 
 7730  7733  7736  7739     9 
 7734  7733  7736  7737     9 
 7734  7733  7736  7738     9 
 7734  7733  7736  7739     9 
 7735  7733  7736  7737     9 
 7735  7733  7736  7738     9 
 7735  7733  7736  7739     9 
 7733  7736  7739  7740     9 
 7733  7736  7739  7741     9 
 7733  7736  7739  7742     9 
 7737  7736  7739  7740     9 
 7737  7736  7739  7741     9 
 7737  7736  7739  7742     9 
 7738  7736  7739  7740     9 
 7738  7736  7739  7741     9 
 7738  7736  7739  7742     9 
 7736  7739  7742  7743     9 
 7736  7739  7742  7744     9 
 7736  7739  7742  7745     9 
 7740  7739  7742  7743     9 
 7740  7739  7742  7744     9 
 7740  7739  7742  7745     9 
 7741  7739  7742  7743     9 
 7741  7739  7742  7744     9 
 7741  7739  7742  7745     9 
 7739  7742  7745  7746     9 
 7739  7742  7745  7747     9 
 7739  7742  7745  7748     9 
 7743  7742  7745  7746     9 
 7743  7742  7745  7747     9 
 7743  7742  7745  7748     9 
 7744  7742  7745  7746     9 
 7744  7742  7745  7747     9 
 7744  7742  7745  7748     9 
 7742  7745  7748  7749     9 
 7742  7745  7748  7750     9 
 7742  7745  7748  7751     9 
 7746  7745  7748  7749     9 
 7746  7745  7748  7750     9 
 7746  7745  7748  7751     9 
 7747  7745  7748  7749     9 
 7747  7745  7748  7750     9 
 7747  7745  7748  7751     9 
 7745  7748  7751  7752     9 
 7745  7748  7751  7753     9 
 7745  7748  7751  7754     9 
 7749  7748  7751  7752     9 
 7749  7748  7751  7753     9 
 7749  7748  7751  7754     9 
 7750  7748  7751  7752     9 
 7750  7748  7751  7753     9 
 7750  7748  7751  7754     9 
 7748  7751  7754  7755     9 
 7748  7751  7754  7756     9 
 7748  7751  7754  7757     9 
 7752  7751  7754  7755     9 
 7752  7751  7754  7756     9 
 7752  7751  7754  7757     9 
 7753  7751  7754  7755     9 
 7753  7751  7754  7756     9 
 7753  7751  7754  7757     9 
 7751  7754  7757  7758     9 
 7751  7754  7757  7759     9 
 7751  7754  7757  7760     9 
 7755  7754  7757  7758     9 
 7755  7754  7757  7759     9 
 7755  7754  7757  7760     9 
 7756  7754  7757  7758     9 
 7756  7754  7757  7759     9 
 7756  7754  7757  7760     9 
 7754  7757  7760  7761     9 
 7754  7757  7760  7762     9 
 7754  7757  7760  7763     9 
 7758  7757  7760  7761     9 
 7758  7757  7760  7762     9 
 7758  7757  7760  7763     9 
 7759  7757  7760  7761     9 
 7759  7757  7760  7762     9 
 7759  7757  7760  7763     9 
 7757  7760  7763  7764     9 
 7757  7760  7763  7765     9 
 7757  7760  7763  7766     9 
 7761  7760  7763  7764     9 
 7761  7760  7763  7765     9 
 7761  7760  7763  7766     9 
 7762  7760  7763  7764     9 
 7762  7760  7763  7765     9 
 7762  7760  7763  7766     9 
 7760  7763  7766  7767     9 
 7760  7763  7766  7768     9 
 7760  7763  7766  7769     9 
 7764  7763  7766  7767     9 
 7764  7763  7766  7768     9 
 7764  7763  7766  7769     9 
 7765  7763  7766  7767     9 
 7765  7763  7766  7768     9 
 7765  7763  7766  7769     9 
 7763  7766  7769  7770     9 
 7763  7766  7769  7771     9 
 7763  7766  7769  7772     9 
 7767  7766  7769  7770     9 
 7767  7766  7769  7771     9 
 7767  7766  7769  7772     9 
 7768  7766  7769  7770     9 
 7768  7766  7769  7771     9 
 7768  7766  7769  7772     9 
 7777  7773  7774  7775     9 
 7777  7773  7774  7776     9 
 7777  7773  7774  7789     9 
 7781  7773  7774  7775     9 
 7781  7773  7774  7776     9 
 7781  7773  7774  7789     9 
 7785  7773  7774  7775     9 
 7785  7773  7774  7776     9 
 7785  7773  7774  7789     9 
 7774  7773  7777  7778     9 
 7774  7773  7777  7779     9 
 7774  7773  7777  7780     9 
 7781  7773  7777  7778     9 
 7781  7773  7777  7779     9 
 7781  7773  7777  7780     9 
 7785  7773  7777  7778     9 
 7785  7773  7777  7779     9 
 7785  7773  7777  7780     9 
 7774  7773  7781  7782     9 
 7774  7773  7781  7783     9 
 7774  7773  7781  7784     9 
 7777  7773  7781  7782     9 
 7777  7773  7781  7783     9 
 7777  7773  7781  7784     9 
 7785  7773  7781  7782     9 
 7785  7773  7781  7783     9 
 7785  7773  7781  7784     9 
 7774  7773  7785  7786     9 
 7774  7773  7785  7787     9 
 7774  7773  7785  7788     9 
 7777  7773  7785  7786     9 
 7777  7773  7785  7787     9 
 7777  7773  7785  7788     9 
 7781  7773  7785  7786     9 
 7781  7773  7785  7787     9 
 7781  7773  7785  7788     9 
 7773  7774  7789  7790     9 
 7773  7774  7789  7791     9 
 7773  7774  7789  7795     9 
 7775  7774  7789  7790     9 
 7775  7774  7789  7791     9 
 7775  7774  7789  7795     9 
 7776  7774  7789  7790     9 
 7776  7774  7789  7791     9 
 7776  7774  7789  7795     9 
 7774  7789  7795  7792     9 
 7790  7789  7795  7792     9 
 7791  7789  7795  7792     9 
 7793  7792  7795  7789     9 
 7794  7792  7795  7789     9 
 7796  7792  7795  7789     9 
 7793  7792  7796  7797     9 
 7794  7792  7796  7797     9 
 7795  7792  7796  7797     9 
 7792  7796  7797  7798     9 
 7792  7796  7797  7799     9 
 7792  7796  7797  7800     9 
 7796  7797  7800  7801     9 
 7796  7797  7800  7802     9 
 7796  7797  7800  7808     9 
 7798  7797  7800  7801     9 
 7798  7797  7800  7802     9 
 7798  7797  7800  7808     9 
 7799  7797  7800  7801     9 
 7799  7797  7800  7802     9 
 7799  7797  7800  7808     9 
 7797  7800  7802  7803     9 
 7801  7800  7802  7803     9 
 7808  7800  7802  7803     9 
 7797  7800  7808  7809     9 
 7797  7800  7808  7810     9 
 7797  7800  7808  7811     9 
 7801  7800  7808  7809     9 
 7801  7800  7808  7810     9 
 7801  7800  7808  7811     9 
 7802  7800  7808  7809     9 
 7802  7800  7808  7810     9 
 7802  7800  7808  7811     9 
 7800  7802  7803  7804     9 
 7800  7802  7803  7805     9 
 7802  7803  7805  7806     9 
 7802  7803  7805  7807     9 
 7802  7803  7805  7817     9 
 7804  7803  7805  7806     9 
 7804  7803  7805  7807     9 
 7804  7803  7805  7817     9 
 7803  7805  7817  7818     9 
 7803  7805  7817  7819     9 
 7803  7805  7817  7820     9 
 7806  7805  7817  7818     9 
 7806  7805  7817  7819     9 
 7806  7805  7817  7820     9 
 7807  7805  7817  7818     9 
 7807  7805  7817  7819     9 
 7807  7805  7817  7820     9 
 7800  7808  7811  7812     9 
 7809  7808  7811  7812     9 
 7810  7808  7811  7812     9 
 7808  7811  7812  7813     9 
 7808  7811  7812  7814     9 
 7811  7812  7814  7815     9 
 7811  7812  7814  7816     9 
 7811  7812  7814  7864     9 
 7813  7812  7814  7815     9 
 7813  7812  7814  7816     9 
 7813  7812  7814  7864     9 
 7812  7814  7864  7865     9 
 7812  7814  7864  7866     9 
 7812  7814  7864  7867     9 
 7815  7814  7864  7865     9 
 7815  7814  7864  7866     9 
 7815  7814  7864  7867     9 
 7816  7814  7864  7865     9 
 7816  7814  7864  7866     9 
 7816  7814  7864  7867     9 
 7805  7817  7820  7821     9 
 7805  7817  7820  7822     9 
 7805  7817  7820  7823     9 
 7818  7817  7820  7821     9 
 7818  7817  7820  7822     9 
 7818  7817  7820  7823     9 
 7819  7817  7820  7821     9 
 7819  7817  7820  7822     9 
 7819  7817  7820  7823     9 
 7817  7820  7823  7824     9 
 7817  7820  7823  7825     9 
 7817  7820  7823  7826     9 
 7821  7820  7823  7824     9 
 7821  7820  7823  7825     9 
 7821  7820  7823  7826     9 
 7822  7820  7823  7824     9 
 7822  7820  7823  7825     9 
 7822  7820  7823  7826     9 
 7820  7823  7826  7827     9 
 7820  7823  7826  7828     9 
 7820  7823  7826  7829     9 
 7824  7823  7826  7827     9 
 7824  7823  7826  7828     9 
 7824  7823  7826  7829     9 
 7825  7823  7826  7827     9 
 7825  7823  7826  7828     9 
 7825  7823  7826  7829     9 
 7823  7826  7829  7830     9 
 7823  7826  7829  7831     9 
 7823  7826  7829  7832     9 
 7827  7826  7829  7830     9 
 7827  7826  7829  7831     9 
 7827  7826  7829  7832     9 
 7828  7826  7829  7830     9 
 7828  7826  7829  7831     9 
 7828  7826  7829  7832     9 
 7826  7829  7832  7833     9 
 7826  7829  7832  7834     9 
 7826  7829  7832  7835     9 
 7830  7829  7832  7833     9 
 7830  7829  7832  7834     9 
 7830  7829  7832  7835     9 
 7831  7829  7832  7833     9 
 7831  7829  7832  7834     9 
 7831  7829  7832  7835     9 
 7829  7832  7835  7836     9 
 7829  7832  7835  7837     9 
 7833  7832  7835  7836     9 
 7833  7832  7835  7837     9 
 7834  7832  7835  7836     9 
 7834  7832  7835  7837     9 
 7832  7835  7837  7838     9 
 7832  7835  7837  7839     9 
 7836  7835  7837  7838     9 
 7836  7835  7837  7839     9 
 7835  7837  7839  7840     9 
 7835  7837  7839  7841     9 
 7835  7837  7839  7842     9 
 7838  7837  7839  7840     9 
 7838  7837  7839  7841     9 
 7838  7837  7839  7842     9 
 7837  7839  7842  7843     9 
 7837  7839  7842  7844     9 
 7837  7839  7842  7845     9 
 7840  7839  7842  7843     9 
 7840  7839  7842  7844     9 
 7840  7839  7842  7845     9 
 7841  7839  7842  7843     9 
 7841  7839  7842  7844     9 
 7841  7839  7842  7845     9 
 7839  7842  7845  7846     9 
 7839  7842  7845  7847     9 
 7839  7842  7845  7848     9 
 7843  7842  7845  7846     9 
 7843  7842  7845  7847     9 
 7843  7842  7845  7848     9 
 7844  7842  7845  7846     9 
 7844  7842  7845  7847     9 
 7844  7842  7845  7848     9 
 7842  7845  7848  7849     9 
 7842  7845  7848  7850     9 
 7842  7845  7848  7851     9 
 7846  7845  7848  7849     9 
 7846  7845  7848  7850     9 
 7846  7845  7848  7851     9 
 7847  7845  7848  7849     9 
 7847  7845  7848  7850     9 
 7847  7845  7848  7851     9 
 7845  7848  7851  7852     9 
 7845  7848  7851  7853     9 
 7845  7848  7851  7854     9 
 7849  7848  7851  7852     9 
 7849  7848  7851  7853     9 
 7849  7848  7851  7854     9 
 7850  7848  7851  7852     9 
 7850  7848  7851  7853     9 
 7850  7848  7851  7854     9 
 7848  7851  7854  7855     9 
 7848  7851  7854  7856     9 
 7848  7851  7854  7857     9 
 7852  7851  7854  7855     9 
 7852  7851  7854  7856     9 
 7852  7851  7854  7857     9 
 7853  7851  7854  7855     9 
 7853  7851  7854  7856     9 
 7853  7851  7854  7857     9 
 7851  7854  7857  7858     9 
 7851  7854  7857  7859     9 
 7851  7854  7857  7860     9 
 7855  7854  7857  7858     9 
 7855  7854  7857  7859     9 
 7855  7854  7857  7860     9 
 7856  7854  7857  7858     9 
 7856  7854  7857  7859     9 
 7856  7854  7857  7860     9 
 7854  7857  7860  7861     9 
 7854  7857  7860  7862     9 
 7854  7857  7860  7863     9 
 7858  7857  7860  7861     9 
 7858  7857  7860  7862     9 
 7858  7857  7860  7863     9 
 7859  7857  7860  7861     9 
 7859  7857  7860  7862     9 
 7859  7857  7860  7863     9 
 7814  7864  7867  7868     9 
 7814  7864  7867  7869     9 
 7814  7864  7867  7870     9 
 7865  7864  7867  7868     9 
 7865  7864  7867  7869     9 
 7865  7864  7867  7870     9 
 7866  7864  7867  7868     9 
 7866  7864  7867  7869     9 
 7866  7864  7867  7870     9 
 7864  7867  7870  7871     9 
 7864  7867  7870  7872     9 
 7864  7867  7870  7873     9 
 7868  7867  7870  7871     9 
 7868  7867  7870  7872     9 
 7868  7867  7870  7873     9 
 7869  7867  7870  7871     9 
 7869  7867  7870  7872     9 
 7869  7867  7870  7873     9 
 7867  7870  7873  7874     9 
 7867  7870  7873  7875     9 
 7867  7870  7873  7876     9 
 7871  7870  7873  7874     9 
 7871  7870  7873  7875     9 
 7871  7870  7873  7876     9 
 7872  7870  7873  7874     9 
 7872  7870  7873  7875     9 
 7872  7870  7873  7876     9 
 7870  7873  7876  7877     9 
 7870  7873  7876  7878     9 
 7870  7873  7876  7879     9 
 7874  7873  7876  7877     9 
 7874  7873  7876  7878     9 
 7874  7873  7876  7879     9 
 7875  7873  7876  7877     9 
 7875  7873  7876  7878     9 
 7875  7873  7876  7879     9 
 7873  7876  7879  7880     9 
 7873  7876  7879  7881     9 
 7873  7876  7879  7882     9 
 7877  7876  7879  7880     9 
 7877  7876  7879  7881     9 
 7877  7876  7879  7882     9 
 7878  7876  7879  7880     9 
 7878  7876  7879  7881     9 
 7878  7876  7879  7882     9 
 7876  7879  7882  7883     9 
 7876  7879  7882  7884     9 
 7876  7879  7882  7885     9 
 7880  7879  7882  7883     9 
 7880  7879  7882  7884     9 
 7880  7879  7882  7885     9 
 7881  7879  7882  7883     9 
 7881  7879  7882  7884     9 
 7881  7879  7882  7885     9 
 7879  7882  7885  7886     9 
 7879  7882  7885  7887     9 
 7879  7882  7885  7888     9 
 7883  7882  7885  7886     9 
 7883  7882  7885  7887     9 
 7883  7882  7885  7888     9 
 7884  7882  7885  7886     9 
 7884  7882  7885  7887     9 
 7884  7882  7885  7888     9 
 7882  7885  7888  7889     9 
 7882  7885  7888  7890     9 
 7882  7885  7888  7891     9 
 7886  7885  7888  7889     9 
 7886  7885  7888  7890     9 
 7886  7885  7888  7891     9 
 7887  7885  7888  7889     9 
 7887  7885  7888  7890     9 
 7887  7885  7888  7891     9 
 7885  7888  7891  7892     9 
 7885  7888  7891  7893     9 
 7885  7888  7891  7894     9 
 7889  7888  7891  7892     9 
 7889  7888  7891  7893     9 
 7889  7888  7891  7894     9 
 7890  7888  7891  7892     9 
 7890  7888  7891  7893     9 
 7890  7888  7891  7894     9 
 7888  7891  7894  7895     9 
 7888  7891  7894  7896     9 
 7888  7891  7894  7897     9 
 7892  7891  7894  7895     9 
 7892  7891  7894  7896     9 
 7892  7891  7894  7897     9 
 7893  7891  7894  7895     9 
 7893  7891  7894  7896     9 
 7893  7891  7894  7897     9 
 7891  7894  7897  7898     9 
 7891  7894  7897  7899     9 
 7891  7894  7897  7900     9 
 7895  7894  7897  7898     9 
 7895  7894  7897  7899     9 
 7895  7894  7897  7900     9 
 7896  7894  7897  7898     9 
 7896  7894  7897  7899     9 
 7896  7894  7897  7900     9 
 7894  7897  7900  7901     9 
 7894  7897  7900  7902     9 
 7894  7897  7900  7903     9 
 7898  7897  7900  7901     9 
 7898  7897  7900  7902     9 
 7898  7897  7900  7903     9 
 7899  7897  7900  7901     9 
 7899  7897  7900  7902     9 
 7899  7897  7900  7903     9 
 7897  7900  7903  7904     9 
 7897  7900  7903  7905     9 
 7897  7900  7903  7906     9 
 7901  7900  7903  7904     9 
 7901  7900  7903  7905     9 
 7901  7900  7903  7906     9 
 7902  7900  7903  7904     9 
 7902  7900  7903  7905     9 
 7902  7900  7903  7906     9 
 7911  7907  7908  7909     9 
 7911  7907  7908  7910     9 
 7911  7907  7908  7923     9 
 7915  7907  7908  7909     9 
 7915  7907  7908  7910     9 
 7915  7907  7908  7923     9 
 7919  7907  7908  7909     9 
 7919  7907  7908  7910     9 
 7919  7907  7908  7923     9 
 7908  7907  7911  7912     9 
 7908  7907  7911  7913     9 
 7908  7907  7911  7914     9 
 7915  7907  7911  7912     9 
 7915  7907  7911  7913     9 
 7915  7907  7911  7914     9 
 7919  7907  7911  7912     9 
 7919  7907  7911  7913     9 
 7919  7907  7911  7914     9 
 7908  7907  7915  7916     9 
 7908  7907  7915  7917     9 
 7908  7907  7915  7918     9 
 7911  7907  7915  7916     9 
 7911  7907  7915  7917     9 
 7911  7907  7915  7918     9 
 7919  7907  7915  7916     9 
 7919  7907  7915  7917     9 
 7919  7907  7915  7918     9 
 7908  7907  7919  7920     9 
 7908  7907  7919  7921     9 
 7908  7907  7919  7922     9 
 7911  7907  7919  7920     9 
 7911  7907  7919  7921     9 
 7911  7907  7919  7922     9 
 7915  7907  7919  7920     9 
 7915  7907  7919  7921     9 
 7915  7907  7919  7922     9 
 7907  7908  7923  7924     9 
 7907  7908  7923  7925     9 
 7907  7908  7923  7929     9 
 7909  7908  7923  7924     9 
 7909  7908  7923  7925     9 
 7909  7908  7923  7929     9 
 7910  7908  7923  7924     9 
 7910  7908  7923  7925     9 
 7910  7908  7923  7929     9 
 7908  7923  7929  7926     9 
 7924  7923  7929  7926     9 
 7925  7923  7929  7926     9 
 7927  7926  7929  7923     9 
 7928  7926  7929  7923     9 
 7930  7926  7929  7923     9 
 7927  7926  7930  7931     9 
 7928  7926  7930  7931     9 
 7929  7926  7930  7931     9 
 7926  7930  7931  7932     9 
 7926  7930  7931  7933     9 
 7926  7930  7931  7934     9 
 7930  7931  7934  7935     9 
 7930  7931  7934  7936     9 
 7930  7931  7934  7942     9 
 7932  7931  7934  7935     9 
 7932  7931  7934  7936     9 
 7932  7931  7934  7942     9 
 7933  7931  7934  7935     9 
 7933  7931  7934  7936     9 
 7933  7931  7934  7942     9 
 7931  7934  7936  7937     9 
 7935  7934  7936  7937     9 
 7942  7934  7936  7937     9 
 7931  7934  7942  7943     9 
 7931  7934  7942  7944     9 
 7931  7934  7942  7945     9 
 7935  7934  7942  7943     9 
 7935  7934  7942  7944     9 
 7935  7934  7942  7945     9 
 7936  7934  7942  7943     9 
 7936  7934  7942  7944     9 
 7936  7934  7942  7945     9 
 7934  7936  7937  7938     9 
 7934  7936  7937  7939     9 
 7936  7937  7939  7940     9 
 7936  7937  7939  7941     9 
 7936  7937  7939  7951     9 
 7938  7937  7939  7940     9 
 7938  7937  7939  7941     9 
 7938  7937  7939  7951     9 
 7937  7939  7951  7952     9 
 7937  7939  7951  7953     9 
 7937  7939  7951  7954     9 
 7940  7939  7951  7952     9 
 7940  7939  7951  7953     9 
 7940  7939  7951  7954     9 
 7941  7939  7951  7952     9 
 7941  7939  7951  7953     9 
 7941  7939  7951  7954     9 
 7934  7942  7945  7946     9 
 7943  7942  7945  7946     9 
 7944  7942  7945  7946     9 
 7942  7945  7946  7947     9 
 7942  7945  7946  7948     9 
 7945  7946  7948  7949     9 
 7945  7946  7948  7950     9 
 7945  7946  7948  7998     9 
 7947  7946  7948  7949     9 
 7947  7946  7948  7950     9 
 7947  7946  7948  7998     9 
 7946  7948  7998  7999     9 
 7946  7948  7998  8000     9 
 7946  7948  7998  8001     9 
 7949  7948  7998  7999     9 
 7949  7948  7998  8000     9 
 7949  7948  7998  8001     9 
 7950  7948  7998  7999     9 
 7950  7948  7998  8000     9 
 7950  7948  7998  8001     9 
 7939  7951  7954  7955     9 
 7939  7951  7954  7956     9 
 7939  7951  7954  7957     9 
 7952  7951  7954  7955     9 
 7952  7951  7954  7956     9 
 7952  7951  7954  7957     9 
 7953  7951  7954  7955     9 
 7953  7951  7954  7956     9 
 7953  7951  7954  7957     9 
 7951  7954  7957  7958     9 
 7951  7954  7957  7959     9 
 7951  7954  7957  7960     9 
 7955  7954  7957  7958     9 
 7955  7954  7957  7959     9 
 7955  7954  7957  7960     9 
 7956  7954  7957  7958     9 
 7956  7954  7957  7959     9 
 7956  7954  7957  7960     9 
 7954  7957  7960  7961     9 
 7954  7957  7960  7962     9 
 7954  7957  7960  7963     9 
 7958  7957  7960  7961     9 
 7958  7957  7960  7962     9 
 7958  7957  7960  7963     9 
 7959  7957  7960  7961     9 
 7959  7957  7960  7962     9 
 7959  7957  7960  7963     9 
 7957  7960  7963  7964     9 
 7957  7960  7963  7965     9 
 7957  7960  7963  7966     9 
 7961  7960  7963  7964     9 
 7961  7960  7963  7965     9 
 7961  7960  7963  7966     9 
 7962  7960  7963  7964     9 
 7962  7960  7963  7965     9 
 7962  7960  7963  7966     9 
 7960  7963  7966  7967     9 
 7960  7963  7966  7968     9 
 7960  7963  7966  7969     9 
 7964  7963  7966  7967     9 
 7964  7963  7966  7968     9 
 7964  7963  7966  7969     9 
 7965  7963  7966  7967     9 
 7965  7963  7966  7968     9 
 7965  7963  7966  7969     9 
 7963  7966  7969  7970     9 
 7963  7966  7969  7971     9 
 7967  7966  7969  7970     9 
 7967  7966  7969  7971     9 
 7968  7966  7969  7970     9 
 7968  7966  7969  7971     9 
 7966  7969  7971  7972     9 
 7966  7969  7971  7973     9 
 7970  7969  7971  7972     9 
 7970  7969  7971  7973     9 
 7969  7971  7973  7974     9 
 7969  7971  7973  7975     9 
 7969  7971  7973  7976     9 
 7972  7971  7973  7974     9 
 7972  7971  7973  7975     9 
 7972  7971  7973  7976     9 
 7971  7973  7976  7977     9 
 7971  7973  7976  7978     9 
 7971  7973  7976  7979     9 
 7974  7973  7976  7977     9 
 7974  7973  7976  7978     9 
 7974  7973  7976  7979     9 
 7975  7973  7976  7977     9 
 7975  7973  7976  7978     9 
 7975  7973  7976  7979     9 
 7973  7976  7979  7980     9 
 7973  7976  7979  7981     9 
 7973  7976  7979  7982     9 
 7977  7976  7979  7980     9 
 7977  7976  7979  7981     9 
 7977  7976  7979  7982     9 
 7978  7976  7979  7980     9 
 7978  7976  7979  7981     9 
 7978  7976  7979  7982     9 
 7976  7979  7982  7983     9 
 7976  7979  7982  7984     9 
 7976  7979  7982  7985     9 
 7980  7979  7982  7983     9 
 7980  7979  7982  7984     9 
 7980  7979  7982  7985     9 
 7981  7979  7982  7983     9 
 7981  7979  7982  7984     9 
 7981  7979  7982  7985     9 
 7979  7982  7985  7986     9 
 7979  7982  7985  7987     9 
 7979  7982  7985  7988     9 
 7983  7982  7985  7986     9 
 7983  7982  7985  7987     9 
 7983  7982  7985  7988     9 
 7984  7982  7985  7986     9 
 7984  7982  7985  7987     9 
 7984  7982  7985  7988     9 
 7982  7985  7988  7989     9 
 7982  7985  7988  7990     9 
 7982  7985  7988  7991     9 
 7986  7985  7988  7989     9 
 7986  7985  7988  7990     9 
 7986  7985  7988  7991     9 
 7987  7985  7988  7989     9 
 7987  7985  7988  7990     9 
 7987  7985  7988  7991     9 
 7985  7988  7991  7992     9 
 7985  7988  7991  7993     9 
 7985  7988  7991  7994     9 
 7989  7988  7991  7992     9 
 7989  7988  7991  7993     9 
 7989  7988  7991  7994     9 
 7990  7988  7991  7992     9 
 7990  7988  7991  7993     9 
 7990  7988  7991  7994     9 
 7988  7991  7994  7995     9 
 7988  7991  7994  7996     9 
 7988  7991  7994  7997     9 
 7992  7991  7994  7995     9 
 7992  7991  7994  7996     9 
 7992  7991  7994  7997     9 
 7993  7991  7994  7995     9 
 7993  7991  7994  7996     9 
 7993  7991  7994  7997     9 
 7948  7998  8001  8002     9 
 7948  7998  8001  8003     9 
 7948  7998  8001  8004     9 
 7999  7998  8001  8002     9 
 7999  7998  8001  8003     9 
 7999  7998  8001  8004     9 
 8000  7998  8001  8002     9 
 8000  7998  8001  8003     9 
 8000  7998  8001  8004     9 
 7998  8001  8004  8005     9 
 7998  8001  8004  8006     9 
 7998  8001  8004  8007     9 
 8002  8001  8004  8005     9 
 8002  8001  8004  8006     9 
 8002  8001  8004  8007     9 
 8003  8001  8004  8005     9 
 8003  8001  8004  8006     9 
 8003  8001  8004  8007     9 
 8001  8004  8007  8008     9 
 8001  8004  8007  8009     9 
 8001  8004  8007  8010     9 
 8005  8004  8007  8008     9 
 8005  8004  8007  8009     9 
 8005  8004  8007  8010     9 
 8006  8004  8007  8008     9 
 8006  8004  8007  8009     9 
 8006  8004  8007  8010     9 
 8004  8007  8010  8011     9 
 8004  8007  8010  8012     9 
 8004  8007  8010  8013     9 
 8008  8007  8010  8011     9 
 8008  8007  8010  8012     9 
 8008  8007  8010  8013     9 
 8009  8007  8010  8011     9 
 8009  8007  8010  8012     9 
 8009  8007  8010  8013     9 
 8007  8010  8013  8014     9 
 8007  8010  8013  8015     9 
 8007  8010  8013  8016     9 
 8011  8010  8013  8014     9 
 8011  8010  8013  8015     9 
 8011  8010  8013  8016     9 
 8012  8010  8013  8014     9 
 8012  8010  8013  8015     9 
 8012  8010  8013  8016     9 
 8010  8013  8016  8017     9 
 8010  8013  8016  8018     9 
 8010  8013  8016  8019     9 
 8014  8013  8016  8017     9 
 8014  8013  8016  8018     9 
 8014  8013  8016  8019     9 
 8015  8013  8016  8017     9 
 8015  8013  8016  8018     9 
 8015  8013  8016  8019     9 
 8013  8016  8019  8020     9 
 8013  8016  8019  8021     9 
 8013  8016  8019  8022     9 
 8017  8016  8019  8020     9 
 8017  8016  8019  8021     9 
 8017  8016  8019  8022     9 
 8018  8016  8019  8020     9 
 8018  8016  8019  8021     9 
 8018  8016  8019  8022     9 
 8016  8019  8022  8023     9 
 8016  8019  8022  8024     9 
 8016  8019  8022  8025     9 
 8020  8019  8022  8023     9 
 8020  8019  8022  8024     9 
 8020  8019  8022  8025     9 
 8021  8019  8022  8023     9 
 8021  8019  8022  8024     9 
 8021  8019  8022  8025     9 
 8019  8022  8025  8026     9 
 8019  8022  8025  8027     9 
 8019  8022  8025  8028     9 
 8023  8022  8025  8026     9 
 8023  8022  8025  8027     9 
 8023  8022  8025  8028     9 
 8024  8022  8025  8026     9 
 8024  8022  8025  8027     9 
 8024  8022  8025  8028     9 
 8022  8025  8028  8029     9 
 8022  8025  8028  8030     9 
 8022  8025  8028  8031     9 
 8026  8025  8028  8029     9 
 8026  8025  8028  8030     9 
 8026  8025  8028  8031     9 
 8027  8025  8028  8029     9 
 8027  8025  8028  8030     9 
 8027  8025  8028  8031     9 
 8025  8028  8031  8032     9 
 8025  8028  8031  8033     9 
 8025  8028  8031  8034     9 
 8029  8028  8031  8032     9 
 8029  8028  8031  8033     9 
 8029  8028  8031  8034     9 
 8030  8028  8031  8032     9 
 8030  8028  8031  8033     9 
 8030  8028  8031  8034     9 
 8028  8031  8034  8035     9 
 8028  8031  8034  8036     9 
 8028  8031  8034  8037     9 
 8032  8031  8034  8035     9 
 8032  8031  8034  8036     9 
 8032  8031  8034  8037     9 
 8033  8031  8034  8035     9 
 8033  8031  8034  8036     9 
 8033  8031  8034  8037     9 
 8031  8034  8037  8038     9 
 8031  8034  8037  8039     9 
 8031  8034  8037  8040     9 
 8035  8034  8037  8038     9 
 8035  8034  8037  8039     9 
 8035  8034  8037  8040     9 
 8036  8034  8037  8038     9 
 8036  8034  8037  8039     9 
 8036  8034  8037  8040     9 
 8045  8041  8042  8043     9 
 8045  8041  8042  8044     9 
 8045  8041  8042  8057     9 
 8049  8041  8042  8043     9 
 8049  8041  8042  8044     9 
 8049  8041  8042  8057     9 
 8053  8041  8042  8043     9 
 8053  8041  8042  8044     9 
 8053  8041  8042  8057     9 
 8042  8041  8045  8046     9 
 8042  8041  8045  8047     9 
 8042  8041  8045  8048     9 
 8049  8041  8045  8046     9 
 8049  8041  8045  8047     9 
 8049  8041  8045  8048     9 
 8053  8041  8045  8046     9 
 8053  8041  8045  8047     9 
 8053  8041  8045  8048     9 
 8042  8041  8049  8050     9 
 8042  8041  8049  8051     9 
 8042  8041  8049  8052     9 
 8045  8041  8049  8050     9 
 8045  8041  8049  8051     9 
 8045  8041  8049  8052     9 
 8053  8041  8049  8050     9 
 8053  8041  8049  8051     9 
 8053  8041  8049  8052     9 
 8042  8041  8053  8054     9 
 8042  8041  8053  8055     9 
 8042  8041  8053  8056     9 
 8045  8041  8053  8054     9 
 8045  8041  8053  8055     9 
 8045  8041  8053  8056     9 
 8049  8041  8053  8054     9 
 8049  8041  8053  8055     9 
 8049  8041  8053  8056     9 
 8041  8042  8057  8058     9 
 8041  8042  8057  8059     9 
 8041  8042  8057  8063     9 
 8043  8042  8057  8058     9 
 8043  8042  8057  8059     9 
 8043  8042  8057  8063     9 
 8044  8042  8057  8058     9 
 8044  8042  8057  8059     9 
 8044  8042  8057  8063     9 
 8042  8057  8063  8060     9 
 8058  8057  8063  8060     9 
 8059  8057  8063  8060     9 
 8061  8060  8063  8057     9 
 8062  8060  8063  8057     9 
 8064  8060  8063  8057     9 
 8061  8060  8064  8065     9 
 8062  8060  8064  8065     9 
 8063  8060  8064  8065     9 
 8060  8064  8065  8066     9 
 8060  8064  8065  8067     9 
 8060  8064  8065  8068     9 
 8064  8065  8068  8069     9 
 8064  8065  8068  8070     9 
 8064  8065  8068  8076     9 
 8066  8065  8068  8069     9 
 8066  8065  8068  8070     9 
 8066  8065  8068  8076     9 
 8067  8065  8068  8069     9 
 8067  8065  8068  8070     9 
 8067  8065  8068  8076     9 
 8065  8068  8070  8071     9 
 8069  8068  8070  8071     9 
 8076  8068  8070  8071     9 
 8065  8068  8076  8077     9 
 8065  8068  8076  8078     9 
 8065  8068  8076  8079     9 
 8069  8068  8076  8077     9 
 8069  8068  8076  8078     9 
 8069  8068  8076  8079     9 
 8070  8068  8076  8077     9 
 8070  8068  8076  8078     9 
 8070  8068  8076  8079     9 
 8068  8070  8071  8072     9 
 8068  8070  8071  8073     9 
 8070  8071  8073  8074     9 
 8070  8071  8073  8075     9 
 8070  8071  8073  8085     9 
 8072  8071  8073  8074     9 
 8072  8071  8073  8075     9 
 8072  8071  8073  8085     9 
 8071  8073  8085  8086     9 
 8071  8073  8085  8087     9 
 8071  8073  8085  8088     9 
 8074  8073  8085  8086     9 
 8074  8073  8085  8087     9 
 8074  8073  8085  8088     9 
 8075  8073  8085  8086     9 
 8075  8073  8085  8087     9 
 8075  8073  8085  8088     9 
 8068  8076  8079  8080     9 
 8077  8076  8079  8080     9 
 8078  8076  8079  8080     9 
 8076  8079  8080  8081     9 
 8076  8079  8080  8082     9 
 8079  8080  8082  8083     9 
 8079  8080  8082  8084     9 
 8079  8080  8082  8132     9 
 8081  8080  8082  8083     9 
 8081  8080  8082  8084     9 
 8081  8080  8082  8132     9 
 8080  8082  8132  8133     9 
 8080  8082  8132  8134     9 
 8080  8082  8132  8135     9 
 8083  8082  8132  8133     9 
 8083  8082  8132  8134     9 
 8083  8082  8132  8135     9 
 8084  8082  8132  8133     9 
 8084  8082  8132  8134     9 
 8084  8082  8132  8135     9 
 8073  8085  8088  8089     9 
 8073  8085  8088  8090     9 
 8073  8085  8088  8091     9 
 8086  8085  8088  8089     9 
 8086  8085  8088  8090     9 
 8086  8085  8088  8091     9 
 8087  8085  8088  8089     9 
 8087  8085  8088  8090     9 
 8087  8085  8088  8091     9 
 8085  8088  8091  8092     9 
 8085  8088  8091  8093     9 
 8085  8088  8091  8094     9 
 8089  8088  8091  8092     9 
 8089  8088  8091  8093     9 
 8089  8088  8091  8094     9 
 8090  8088  8091  8092     9 
 8090  8088  8091  8093     9 
 8090  8088  8091  8094     9 
 8088  8091  8094  8095     9 
 8088  8091  8094  8096     9 
 8088  8091  8094  8097     9 
 8092  8091  8094  8095     9 
 8092  8091  8094  8096     9 
 8092  8091  8094  8097     9 
 8093  8091  8094  8095     9 
 8093  8091  8094  8096     9 
 8093  8091  8094  8097     9 
 8091  8094  8097  8098     9 
 8091  8094  8097  8099     9 
 8091  8094  8097  8100     9 
 8095  8094  8097  8098     9 
 8095  8094  8097  8099     9 
 8095  8094  8097  8100     9 
 8096  8094  8097  8098     9 
 8096  8094  8097  8099     9 
 8096  8094  8097  8100     9 
 8094  8097  8100  8101     9 
 8094  8097  8100  8102     9 
 8094  8097  8100  8103     9 
 8098  8097  8100  8101     9 
 8098  8097  8100  8102     9 
 8098  8097  8100  8103     9 
 8099  8097  8100  8101     9 
 8099  8097  8100  8102     9 
 8099  8097  8100  8103     9 
 8097  8100  8103  8104     9 
 8097  8100  8103  8105     9 
 8101  8100  8103  8104     9 
 8101  8100  8103  8105     9 
 8102  8100  8103  8104     9 
 8102  8100  8103  8105     9 
 8100  8103  8105  8106     9 
 8100  8103  8105  8107     9 
 8104  8103  8105  8106     9 
 8104  8103  8105  8107     9 
 8103  8105  8107  8108     9 
 8103  8105  8107  8109     9 
 8103  8105  8107  8110     9 
 8106  8105  8107  8108     9 
 8106  8105  8107  8109     9 
 8106  8105  8107  8110     9 
 8105  8107  8110  8111     9 
 8105  8107  8110  8112     9 
 8105  8107  8110  8113     9 
 8108  8107  8110  8111     9 
 8108  8107  8110  8112     9 
 8108  8107  8110  8113     9 
 8109  8107  8110  8111     9 
 8109  8107  8110  8112     9 
 8109  8107  8110  8113     9 
 8107  8110  8113  8114     9 
 8107  8110  8113  8115     9 
 8107  8110  8113  8116     9 
 8111  8110  8113  8114     9 
 8111  8110  8113  8115     9 
 8111  8110  8113  8116     9 
 8112  8110  8113  8114     9 
 8112  8110  8113  8115     9 
 8112  8110  8113  8116     9 
 8110  8113  8116  8117     9 
 8110  8113  8116  8118     9 
 8110  8113  8116  8119     9 
 8114  8113  8116  8117     9 
 8114  8113  8116  8118     9 
 8114  8113  8116  8119     9 
 8115  8113  8116  8117     9 
 8115  8113  8116  8118     9 
 8115  8113  8116  8119     9 
 8113  8116  8119  8120     9 
 8113  8116  8119  8121     9 
 8113  8116  8119  8122     9 
 8117  8116  8119  8120     9 
 8117  8116  8119  8121     9 
 8117  8116  8119  8122     9 
 8118  8116  8119  8120     9 
 8118  8116  8119  8121     9 
 8118  8116  8119  8122     9 
 8116  8119  8122  8123     9 
 8116  8119  8122  8124     9 
 8116  8119  8122  8125     9 
 8120  8119  8122  8123     9 
 8120  8119  8122  8124     9 
 8120  8119  8122  8125     9 
 8121  8119  8122  8123     9 
 8121  8119  8122  8124     9 
 8121  8119  8122  8125     9 
 8119  8122  8125  8126     9 
 8119  8122  8125  8127     9 
 8119  8122  8125  8128     9 
 8123  8122  8125  8126     9 
 8123  8122  8125  8127     9 
 8123  8122  8125  8128     9 
 8124  8122  8125  8126     9 
 8124  8122  8125  8127     9 
 8124  8122  8125  8128     9 
 8122  8125  8128  8129     9 
 8122  8125  8128  8130     9 
 8122  8125  8128  8131     9 
 8126  8125  8128  8129     9 
 8126  8125  8128  8130     9 
 8126  8125  8128  8131     9 
 8127  8125  8128  8129     9 
 8127  8125  8128  8130     9 
 8127  8125  8128  8131     9 
 8082  8132  8135  8136     9 
 8082  8132  8135  8137     9 
 8082  8132  8135  8138     9 
 8133  8132  8135  8136     9 
 8133  8132  8135  8137     9 
 8133  8132  8135  8138     9 
 8134  8132  8135  8136     9 
 8134  8132  8135  8137     9 
 8134  8132  8135  8138     9 
 8132  8135  8138  8139     9 
 8132  8135  8138  8140     9 
 8132  8135  8138  8141     9 
 8136  8135  8138  8139     9 
 8136  8135  8138  8140     9 
 8136  8135  8138  8141     9 
 8137  8135  8138  8139     9 
 8137  8135  8138  8140     9 
 8137  8135  8138  8141     9 
 8135  8138  8141  8142     9 
 8135  8138  8141  8143     9 
 8135  8138  8141  8144     9 
 8139  8138  8141  8142     9 
 8139  8138  8141  8143     9 
 8139  8138  8141  8144     9 
 8140  8138  8141  8142     9 
 8140  8138  8141  8143     9 
 8140  8138  8141  8144     9 
 8138  8141  8144  8145     9 
 8138  8141  8144  8146     9 
 8138  8141  8144  8147     9 
 8142  8141  8144  8145     9 
 8142  8141  8144  8146     9 
 8142  8141  8144  8147     9 
 8143  8141  8144  8145     9 
 8143  8141  8144  8146     9 
 8143  8141  8144  8147     9 
 8141  8144  8147  8148     9 
 8141  8144  8147  8149     9 
 8141  8144  8147  8150     9 
 8145  8144  8147  8148     9 
 8145  8144  8147  8149     9 
 8145  8144  8147  8150     9 
 8146  8144  8147  8148     9 
 8146  8144  8147  8149     9 
 8146  8144  8147  8150     9 
 8144  8147  8150  8151     9 
 8144  8147  8150  8152     9 
 8144  8147  8150  8153     9 
 8148  8147  8150  8151     9 
 8148  8147  8150  8152     9 
 8148  8147  8150  8153     9 
 8149  8147  8150  8151     9 
 8149  8147  8150  8152     9 
 8149  8147  8150  8153     9 
 8147  8150  8153  8154     9 
 8147  8150  8153  8155     9 
 8147  8150  8153  8156     9 
 8151  8150  8153  8154     9 
 8151  8150  8153  8155     9 
 8151  8150  8153  8156     9 
 8152  8150  8153  8154     9 
 8152  8150  8153  8155     9 
 8152  8150  8153  8156     9 
 8150  8153  8156  8157     9 
 8150  8153  8156  8158     9 
 8150  8153  8156  8159     9 
 8154  8153  8156  8157     9 
 8154  8153  8156  8158     9 
 8154  8153  8156  8159     9 
 8155  8153  8156  8157     9 
 8155  8153  8156  8158     9 
 8155  8153  8156  8159     9 
 8153  8156  8159  8160     9 
 8153  8156  8159  8161     9 
 8153  8156  8159  8162     9 
 8157  8156  8159  8160     9 
 8157  8156  8159  8161     9 
 8157  8156  8159  8162     9 
 8158  8156  8159  8160     9 
 8158  8156  8159  8161     9 
 8158  8156  8159  8162     9 
 8156  8159  8162  8163     9 
 8156  8159  8162  8164     9 
 8156  8159  8162  8165     9 
 8160  8159  8162  8163     9 
 8160  8159  8162  8164     9 
 8160  8159  8162  8165     9 
 8161  8159  8162  8163     9 
 8161  8159  8162  8164     9 
 8161  8159  8162  8165     9 
 8159  8162  8165  8166     9 
 8159  8162  8165  8167     9 
 8159  8162  8165  8168     9 
 8163  8162  8165  8166     9 
 8163  8162  8165  8167     9 
 8163  8162  8165  8168     9 
 8164  8162  8165  8166     9 
 8164  8162  8165  8167     9 
 8164  8162  8165  8168     9 
 8162  8165  8168  8169     9 
 8162  8165  8168  8170     9 
 8162  8165  8168  8171     9 
 8166  8165  8168  8169     9 
 8166  8165  8168  8170     9 
 8166  8165  8168  8171     9 
 8167  8165  8168  8169     9 
 8167  8165  8168  8170     9 
 8167  8165  8168  8171     9 
 8165  8168  8171  8172     9 
 8165  8168  8171  8173     9 
 8165  8168  8171  8174     9 
 8169  8168  8171  8172     9 
 8169  8168  8171  8173     9 
 8169  8168  8171  8174     9 
 8170  8168  8171  8172     9 
 8170  8168  8171  8173     9 
 8170  8168  8171  8174     9 
 8179  8175  8176  8177     9 
 8179  8175  8176  8178     9 
 8179  8175  8176  8191     9 
 8183  8175  8176  8177     9 
 8183  8175  8176  8178     9 
 8183  8175  8176  8191     9 
 8187  8175  8176  8177     9 
 8187  8175  8176  8178     9 
 8187  8175  8176  8191     9 
 8176  8175  8179  8180     9 
 8176  8175  8179  8181     9 
 8176  8175  8179  8182     9 
 8183  8175  8179  8180     9 
 8183  8175  8179  8181     9 
 8183  8175  8179  8182     9 
 8187  8175  8179  8180     9 
 8187  8175  8179  8181     9 
 8187  8175  8179  8182     9 
 8176  8175  8183  8184     9 
 8176  8175  8183  8185     9 
 8176  8175  8183  8186     9 
 8179  8175  8183  8184     9 
 8179  8175  8183  8185     9 
 8179  8175  8183  8186     9 
 8187  8175  8183  8184     9 
 8187  8175  8183  8185     9 
 8187  8175  8183  8186     9 
 8176  8175  8187  8188     9 
 8176  8175  8187  8189     9 
 8176  8175  8187  8190     9 
 8179  8175  8187  8188     9 
 8179  8175  8187  8189     9 
 8179  8175  8187  8190     9 
 8183  8175  8187  8188     9 
 8183  8175  8187  8189     9 
 8183  8175  8187  8190     9 
 8175  8176  8191  8192     9 
 8175  8176  8191  8193     9 
 8175  8176  8191  8197     9 
 8177  8176  8191  8192     9 
 8177  8176  8191  8193     9 
 8177  8176  8191  8197     9 
 8178  8176  8191  8192     9 
 8178  8176  8191  8193     9 
 8178  8176  8191  8197     9 
 8176  8191  8197  8194     9 
 8192  8191  8197  8194     9 
 8193  8191  8197  8194     9 
 8195  8194  8197  8191     9 
 8196  8194  8197  8191     9 
 8198  8194  8197  8191     9 
 8195  8194  8198  8199     9 
 8196  8194  8198  8199     9 
 8197  8194  8198  8199     9 
 8194  8198  8199  8200     9 
 8194  8198  8199  8201     9 
 8194  8198  8199  8202     9 
 8198  8199  8202  8203     9 
 8198  8199  8202  8204     9 
 8198  8199  8202  8210     9 
 8200  8199  8202  8203     9 
 8200  8199  8202  8204     9 
 8200  8199  8202  8210     9 
 8201  8199  8202  8203     9 
 8201  8199  8202  8204     9 
 8201  8199  8202  8210     9 
 8199  8202  8204  8205     9 
 8203  8202  8204  8205     9 
 8210  8202  8204  8205     9 
 8199  8202  8210  8211     9 
 8199  8202  8210  8212     9 
 8199  8202  8210  8213     9 
 8203  8202  8210  8211     9 
 8203  8202  8210  8212     9 
 8203  8202  8210  8213     9 
 8204  8202  8210  8211     9 
 8204  8202  8210  8212     9 
 8204  8202  8210  8213     9 
 8202  8204  8205  8206     9 
 8202  8204  8205  8207     9 
 8204  8205  8207  8208     9 
 8204  8205  8207  8209     9 
 8204  8205  8207  8219     9 
 8206  8205  8207  8208     9 
 8206  8205  8207  8209     9 
 8206  8205  8207  8219     9 
 8205  8207  8219  8220     9 
 8205  8207  8219  8221     9 
 8205  8207  8219  8222     9 
 8208  8207  8219  8220     9 
 8208  8207  8219  8221     9 
 8208  8207  8219  8222     9 
 8209  8207  8219  8220     9 
 8209  8207  8219  8221     9 
 8209  8207  8219  8222     9 
 8202  8210  8213  8214     9 
 8211  8210  8213  8214     9 
 8212  8210  8213  8214     9 
 8210  8213  8214  8215     9 
 8210  8213  8214  8216     9 
 8213  8214  8216  8217     9 
 8213  8214  8216  8218     9 
 8213  8214  8216  8266     9 
 8215  8214  8216  8217     9 
 8215  8214  8216  8218     9 
 8215  8214  8216  8266     9 
 8214  8216  8266  8267     9 
 8214  8216  8266  8268     9 
 8214  8216  8266  8269     9 
 8217  8216  8266  8267     9 
 8217  8216  8266  8268     9 
 8217  8216  8266  8269     9 
 8218  8216  8266  8267     9 
 8218  8216  8266  8268     9 
 8218  8216  8266  8269     9 
 8207  8219  8222  8223     9 
 8207  8219  8222  8224     9 
 8207  8219  8222  8225     9 
 8220  8219  8222  8223     9 
 8220  8219  8222  8224     9 
 8220  8219  8222  8225     9 
 8221  8219  8222  8223     9 
 8221  8219  8222  8224     9 
 8221  8219  8222  8225     9 
 8219  8222  8225  8226     9 
 8219  8222  8225  8227     9 
 8219  8222  8225  8228     9 
 8223  8222  8225  8226     9 
 8223  8222  8225  8227     9 
 8223  8222  8225  8228     9 
 8224  8222  8225  8226     9 
 8224  8222  8225  8227     9 
 8224  8222  8225  8228     9 
 8222  8225  8228  8229     9 
 8222  8225  8228  8230     9 
 8222  8225  8228  8231     9 
 8226  8225  8228  8229     9 
 8226  8225  8228  8230     9 
 8226  8225  8228  8231     9 
 8227  8225  8228  8229     9 
 8227  8225  8228  8230     9 
 8227  8225  8228  8231     9 
 8225  8228  8231  8232     9 
 8225  8228  8231  8233     9 
 8225  8228  8231  8234     9 
 8229  8228  8231  8232     9 
 8229  8228  8231  8233     9 
 8229  8228  8231  8234     9 
 8230  8228  8231  8232     9 
 8230  8228  8231  8233     9 
 8230  8228  8231  8234     9 
 8228  8231  8234  8235     9 
 8228  8231  8234  8236     9 
 8228  8231  8234  8237     9 
 8232  8231  8234  8235     9 
 8232  8231  8234  8236     9 
 8232  8231  8234  8237     9 
 8233  8231  8234  8235     9 
 8233  8231  8234  8236     9 
 8233  8231  8234  8237     9 
 8231  8234  8237  8238     9 
 8231  8234  8237  8239     9 
 8235  8234  8237  8238     9 
 8235  8234  8237  8239     9 
 8236  8234  8237  8238     9 
 8236  8234  8237  8239     9 
 8234  8237  8239  8240     9 
 8234  8237  8239  8241     9 
 8238  8237  8239  8240     9 
 8238  8237  8239  8241     9 
 8237  8239  8241  8242     9 
 8237  8239  8241  8243     9 
 8237  8239  8241  8244     9 
 8240  8239  8241  8242     9 
 8240  8239  8241  8243     9 
 8240  8239  8241  8244     9 
 8239  8241  8244  8245     9 
 8239  8241  8244  8246     9 
 8239  8241  8244  8247     9 
 8242  8241  8244  8245     9 
 8242  8241  8244  8246     9 
 8242  8241  8244  8247     9 
 8243  8241  8244  8245     9 
 8243  8241  8244  8246     9 
 8243  8241  8244  8247     9 
 8241  8244  8247  8248     9 
 8241  8244  8247  8249     9 
 8241  8244  8247  8250     9 
 8245  8244  8247  8248     9 
 8245  8244  8247  8249     9 
 8245  8244  8247  8250     9 
 8246  8244  8247  8248     9 
 8246  8244  8247  8249     9 
 8246  8244  8247  8250     9 
 8244  8247  8250  8251     9 
 8244  8247  8250  8252     9 
 8244  8247  8250  8253     9 
 8248  8247  8250  8251     9 
 8248  8247  8250  8252     9 
 8248  8247  8250  8253     9 
 8249  8247  8250  8251     9 
 8249  8247  8250  8252     9 
 8249  8247  8250  8253     9 
 8247  8250  8253  8254     9 
 8247  8250  8253  8255     9 
 8247  8250  8253  8256     9 
 8251  8250  8253  8254     9 
 8251  8250  8253  8255     9 
 8251  8250  8253  8256     9 
 8252  8250  8253  8254     9 
 8252  8250  8253  8255     9 
 8252  8250  8253  8256     9 
 8250  8253  8256  8257     9 
 8250  8253  8256  8258     9 
 8250  8253  8256  8259     9 
 8254  8253  8256  8257     9 
 8254  8253  8256  8258     9 
 8254  8253  8256  8259     9 
 8255  8253  8256  8257     9 
 8255  8253  8256  8258     9 
 8255  8253  8256  8259     9 
 8253  8256  8259  8260     9 
 8253  8256  8259  8261     9 
 8253  8256  8259  8262     9 
 8257  8256  8259  8260     9 
 8257  8256  8259  8261     9 
 8257  8256  8259  8262     9 
 8258  8256  8259  8260     9 
 8258  8256  8259  8261     9 
 8258  8256  8259  8262     9 
 8256  8259  8262  8263     9 
 8256  8259  8262  8264     9 
 8256  8259  8262  8265     9 
 8260  8259  8262  8263     9 
 8260  8259  8262  8264     9 
 8260  8259  8262  8265     9 
 8261  8259  8262  8263     9 
 8261  8259  8262  8264     9 
 8261  8259  8262  8265     9 
 8216  8266  8269  8270     9 
 8216  8266  8269  8271     9 
 8216  8266  8269  8272     9 
 8267  8266  8269  8270     9 
 8267  8266  8269  8271     9 
 8267  8266  8269  8272     9 
 8268  8266  8269  8270     9 
 8268  8266  8269  8271     9 
 8268  8266  8269  8272     9 
 8266  8269  8272  8273     9 
 8266  8269  8272  8274     9 
 8266  8269  8272  8275     9 
 8270  8269  8272  8273     9 
 8270  8269  8272  8274     9 
 8270  8269  8272  8275     9 
 8271  8269  8272  8273     9 
 8271  8269  8272  8274     9 
 8271  8269  8272  8275     9 
 8269  8272  8275  8276     9 
 8269  8272  8275  8277     9 
 8269  8272  8275  8278     9 
 8273  8272  8275  8276     9 
 8273  8272  8275  8277     9 
 8273  8272  8275  8278     9 
 8274  8272  8275  8276     9 
 8274  8272  8275  8277     9 
 8274  8272  8275  8278     9 
 8272  8275  8278  8279     9 
 8272  8275  8278  8280     9 
 8272  8275  8278  8281     9 
 8276  8275  8278  8279     9 
 8276  8275  8278  8280     9 
 8276  8275  8278  8281     9 
 8277  8275  8278  8279     9 
 8277  8275  8278  8280     9 
 8277  8275  8278  8281     9 
 8275  8278  8281  8282     9 
 8275  8278  8281  8283     9 
 8275  8278  8281  8284     9 
 8279  8278  8281  8282     9 
 8279  8278  8281  8283     9 
 8279  8278  8281  8284     9 
 8280  8278  8281  8282     9 
 8280  8278  8281  8283     9 
 8280  8278  8281  8284     9 
 8278  8281  8284  8285     9 
 8278  8281  8284  8286     9 
 8278  8281  8284  8287     9 
 8282  8281  8284  8285     9 
 8282  8281  8284  8286     9 
 8282  8281  8284  8287     9 
 8283  8281  8284  8285     9 
 8283  8281  8284  8286     9 
 8283  8281  8284  8287     9 
 8281  8284  8287  8288     9 
 8281  8284  8287  8289     9 
 8281  8284  8287  8290     9 
 8285  8284  8287  8288     9 
 8285  8284  8287  8289     9 
 8285  8284  8287  8290     9 
 8286  8284  8287  8288     9 
 8286  8284  8287  8289     9 
 8286  8284  8287  8290     9 
 8284  8287  8290  8291     9 
 8284  8287  8290  8292     9 
 8284  8287  8290  8293     9 
 8288  8287  8290  8291     9 
 8288  8287  8290  8292     9 
 8288  8287  8290  8293     9 
 8289  8287  8290  8291     9 
 8289  8287  8290  8292     9 
 8289  8287  8290  8293     9 
 8287  8290  8293  8294     9 
 8287  8290  8293  8295     9 
 8287  8290  8293  8296     9 
 8291  8290  8293  8294     9 
 8291  8290  8293  8295     9 
 8291  8290  8293  8296     9 
 8292  8290  8293  8294     9 
 8292  8290  8293  8295     9 
 8292  8290  8293  8296     9 
 8290  8293  8296  8297     9 
 8290  8293  8296  8298     9 
 8290  8293  8296  8299     9 
 8294  8293  8296  8297     9 
 8294  8293  8296  8298     9 
 8294  8293  8296  8299     9 
 8295  8293  8296  8297     9 
 8295  8293  8296  8298     9 
 8295  8293  8296  8299     9 
 8293  8296  8299  8300     9 
 8293  8296  8299  8301     9 
 8293  8296  8299  8302     9 
 8297  8296  8299  8300     9 
 8297  8296  8299  8301     9 
 8297  8296  8299  8302     9 
 8298  8296  8299  8300     9 
 8298  8296  8299  8301     9 
 8298  8296  8299  8302     9 
 8296  8299  8302  8303     9 
 8296  8299  8302  8304     9 
 8296  8299  8302  8305     9 
 8300  8299  8302  8303     9 
 8300  8299  8302  8304     9 
 8300  8299  8302  8305     9 
 8301  8299  8302  8303     9 
 8301  8299  8302  8304     9 
 8301  8299  8302  8305     9 
 8299  8302  8305  8306     9 
 8299  8302  8305  8307     9 
 8299  8302  8305  8308     9 
 8303  8302  8305  8306     9 
 8303  8302  8305  8307     9 
 8303  8302  8305  8308     9 
 8304  8302  8305  8306     9 
 8304  8302  8305  8307     9 
 8304  8302  8305  8308     9 
 8313  8309  8310  8311     9 
 8313  8309  8310  8312     9 
 8313  8309  8310  8325     9 
 8317  8309  8310  8311     9 
 8317  8309  8310  8312     9 
 8317  8309  8310  8325     9 
 8321  8309  8310  8311     9 
 8321  8309  8310  8312     9 
 8321  8309  8310  8325     9 
 8310  8309  8313  8314     9 
 8310  8309  8313  8315     9 
 8310  8309  8313  8316     9 
 8317  8309  8313  8314     9 
 8317  8309  8313  8315     9 
 8317  8309  8313  8316     9 
 8321  8309  8313  8314     9 
 8321  8309  8313  8315     9 
 8321  8309  8313  8316     9 
 8310  8309  8317  8318     9 
 8310  8309  8317  8319     9 
 8310  8309  8317  8320     9 
 8313  8309  8317  8318     9 
 8313  8309  8317  8319     9 
 8313  8309  8317  8320     9 
 8321  8309  8317  8318     9 
 8321  8309  8317  8319     9 
 8321  8309  8317  8320     9 
 8310  8309  8321  8322     9 
 8310  8309  8321  8323     9 
 8310  8309  8321  8324     9 
 8313  8309  8321  8322     9 
 8313  8309  8321  8323     9 
 8313  8309  8321  8324     9 
 8317  8309  8321  8322     9 
 8317  8309  8321  8323     9 
 8317  8309  8321  8324     9 
 8309  8310  8325  8326     9 
 8309  8310  8325  8327     9 
 8309  8310  8325  8331     9 
 8311  8310  8325  8326     9 
 8311  8310  8325  8327     9 
 8311  8310  8325  8331     9 
 8312  8310  8325  8326     9 
 8312  8310  8325  8327     9 
 8312  8310  8325  8331     9 
 8310  8325  8331  8328     9 
 8326  8325  8331  8328     9 
 8327  8325  8331  8328     9 
 8329  8328  8331  8325     9 
 8330  8328  8331  8325     9 
 8332  8328  8331  8325     9 
 8329  8328  8332  8333     9 
 8330  8328  8332  8333     9 
 8331  8328  8332  8333     9 
 8328  8332  8333  8334     9 
 8328  8332  8333  8335     9 
 8328  8332  8333  8336     9 
 8332  8333  8336  8337     9 
 8332  8333  8336  8338     9 
 8332  8333  8336  8344     9 
 8334  8333  8336  8337     9 
 8334  8333  8336  8338     9 
 8334  8333  8336  8344     9 
 8335  8333  8336  8337     9 
 8335  8333  8336  8338     9 
 8335  8333  8336  8344     9 
 8333  8336  8338  8339     9 
 8337  8336  8338  8339     9 
 8344  8336  8338  8339     9 
 8333  8336  8344  8345     9 
 8333  8336  8344  8346     9 
 8333  8336  8344  8347     9 
 8337  8336  8344  8345     9 
 8337  8336  8344  8346     9 
 8337  8336  8344  8347     9 
 8338  8336  8344  8345     9 
 8338  8336  8344  8346     9 
 8338  8336  8344  8347     9 
 8336  8338  8339  8340     9 
 8336  8338  8339  8341     9 
 8338  8339  8341  8342     9 
 8338  8339  8341  8343     9 
 8338  8339  8341  8353     9 
 8340  8339  8341  8342     9 
 8340  8339  8341  8343     9 
 8340  8339  8341  8353     9 
 8339  8341  8353  8354     9 
 8339  8341  8353  8355     9 
 8339  8341  8353  8356     9 
 8342  8341  8353  8354     9 
 8342  8341  8353  8355     9 
 8342  8341  8353  8356     9 
 8343  8341  8353  8354     9 
 8343  8341  8353  8355     9 
 8343  8341  8353  8356     9 
 8336  8344  8347  8348     9 
 8345  8344  8347  8348     9 
 8346  8344  8347  8348     9 
 8344  8347  8348  8349     9 
 8344  8347  8348  8350     9 
 8347  8348  8350  8351     9 
 8347  8348  8350  8352     9 
 8347  8348  8350  8400     9 
 8349  8348  8350  8351     9 
 8349  8348  8350  8352     9 
 8349  8348  8350  8400     9 
 8348  8350  8400  8401     9 
 8348  8350  8400  8402     9 
 8348  8350  8400  8403     9 
 8351  8350  8400  8401     9 
 8351  8350  8400  8402     9 
 8351  8350  8400  8403     9 
 8352  8350  8400  8401     9 
 8352  8350  8400  8402     9 
 8352  8350  8400  8403     9 
 8341  8353  8356  8357     9 
 8341  8353  8356  8358     9 
 8341  8353  8356  8359     9 
 8354  8353  8356  8357     9 
 8354  8353  8356  8358     9 
 8354  8353  8356  8359     9 
 8355  8353  8356  8357     9 
 8355  8353  8356  8358     9 
 8355  8353  8356  8359     9 
 8353  8356  8359  8360     9 
 8353  8356  8359  8361     9 
 8353  8356  8359  8362     9 
 8357  8356  8359  8360     9 
 8357  8356  8359  8361     9 
 8357  8356  8359  8362     9 
 8358  8356  8359  8360     9 
 8358  8356  8359  8361     9 
 8358  8356  8359  8362     9 
 8356  8359  8362  8363     9 
 8356  8359  8362  8364     9 
 8356  8359  8362  8365     9 
 8360  8359  8362  8363     9 
 8360  8359  8362  8364     9 
 8360  8359  8362  8365     9 
 8361  8359  8362  8363     9 
 8361  8359  8362  8364     9 
 8361  8359  8362  8365     9 
 8359  8362  8365  8366     9 
 8359  8362  8365  8367     9 
 8359  8362  8365  8368     9 
 8363  8362  8365  8366     9 
 8363  8362  8365  8367     9 
 8363  8362  8365  8368     9 
 8364  8362  8365  8366     9 
 8364  8362  8365  8367     9 
 8364  8362  8365  8368     9 
 8362  8365  8368  8369     9 
 8362  8365  8368  8370     9 
 8362  8365  8368  8371     9 
 8366  8365  8368  8369     9 
 8366  8365  8368  8370     9 
 8366  8365  8368  8371     9 
 8367  8365  8368  8369     9 
 8367  8365  8368  8370     9 
 8367  8365  8368  8371     9 
 8365  8368  8371  8372     9 
 8365  8368  8371  8373     9 
 8369  8368  8371  8372     9 
 8369  8368  8371  8373     9 
 8370  8368  8371  8372     9 
 8370  8368  8371  8373     9 
 8368  8371  8373  8374     9 
 8368  8371  8373  8375     9 
 8372  8371  8373  8374     9 
 8372  8371  8373  8375     9 
 8371  8373  8375  8376     9 
 8371  8373  8375  8377     9 
 8371  8373  8375  8378     9 
 8374  8373  8375  8376     9 
 8374  8373  8375  8377     9 
 8374  8373  8375  8378     9 
 8373  8375  8378  8379     9 
 8373  8375  8378  8380     9 
 8373  8375  8378  8381     9 
 8376  8375  8378  8379     9 
 8376  8375  8378  8380     9 
 8376  8375  8378  8381     9 
 8377  8375  8378  8379     9 
 8377  8375  8378  8380     9 
 8377  8375  8378  8381     9 
 8375  8378  8381  8382     9 
 8375  8378  8381  8383     9 
 8375  8378  8381  8384     9 
 8379  8378  8381  8382     9 
 8379  8378  8381  8383     9 
 8379  8378  8381  8384     9 
 8380  8378  8381  8382     9 
 8380  8378  8381  8383     9 
 8380  8378  8381  8384     9 
 8378  8381  8384  8385     9 
 8378  8381  8384  8386     9 
 8378  8381  8384  8387     9 
 8382  8381  8384  8385     9 
 8382  8381  8384  8386     9 
 8382  8381  8384  8387     9 
 8383  8381  8384  8385     9 
 8383  8381  8384  8386     9 
 8383  8381  8384  8387     9 
 8381  8384  8387  8388     9 
 8381  8384  8387  8389     9 
 8381  8384  8387  8390     9 
 8385  8384  8387  8388     9 
 8385  8384  8387  8389     9 
 8385  8384  8387  8390     9 
 8386  8384  8387  8388     9 
 8386  8384  8387  8389     9 
 8386  8384  8387  8390     9 
 8384  8387  8390  8391     9 
 8384  8387  8390  8392     9 
 8384  8387  8390  8393     9 
 8388  8387  8390  8391     9 
 8388  8387  8390  8392     9 
 8388  8387  8390  8393     9 
 8389  8387  8390  8391     9 
 8389  8387  8390  8392     9 
 8389  8387  8390  8393     9 
 8387  8390  8393  8394     9 
 8387  8390  8393  8395     9 
 8387  8390  8393  8396     9 
 8391  8390  8393  8394     9 
 8391  8390  8393  8395     9 
 8391  8390  8393  8396     9 
 8392  8390  8393  8394     9 
 8392  8390  8393  8395     9 
 8392  8390  8393  8396     9 
 8390  8393  8396  8397     9 
 8390  8393  8396  8398     9 
 8390  8393  8396  8399     9 
 8394  8393  8396  8397     9 
 8394  8393  8396  8398     9 
 8394  8393  8396  8399     9 
 8395  8393  8396  8397     9 
 8395  8393  8396  8398     9 
 8395  8393  8396  8399     9 
 8350  8400  8403  8404     9 
 8350  8400  8403  8405     9 
 8350  8400  8403  8406     9 
 8401  8400  8403  8404     9 
 8401  8400  8403  8405     9 
 8401  8400  8403  8406     9 
 8402  8400  8403  8404     9 
 8402  8400  8403  8405     9 
 8402  8400  8403  8406     9 
 8400  8403  8406  8407     9 
 8400  8403  8406  8408     9 
 8400  8403  8406  8409     9 
 8404  8403  8406  8407     9 
 8404  8403  8406  8408     9 
 8404  8403  8406  8409     9 
 8405  8403  8406  8407     9 
 8405  8403  8406  8408     9 
 8405  8403  8406  8409     9 
 8403  8406  8409  8410     9 
 8403  8406  8409  8411     9 
 8403  8406  8409  8412     9 
 8407  8406  8409  8410     9 
 8407  8406  8409  8411     9 
 8407  8406  8409  8412     9 
 8408  8406  8409  8410     9 
 8408  8406  8409  8411     9 
 8408  8406  8409  8412     9 
 8406  8409  8412  8413     9 
 8406  8409  8412  8414     9 
 8406  8409  8412  8415     9 
 8410  8409  8412  8413     9 
 8410  8409  8412  8414     9 
 8410  8409  8412  8415     9 
 8411  8409  8412  8413     9 
 8411  8409  8412  8414     9 
 8411  8409  8412  8415     9 
 8409  8412  8415  8416     9 
 8409  8412  8415  8417     9 
 8409  8412  8415  8418     9 
 8413  8412  8415  8416     9 
 8413  8412  8415  8417     9 
 8413  8412  8415  8418     9 
 8414  8412  8415  8416     9 
 8414  8412  8415  8417     9 
 8414  8412  8415  8418     9 
 8412  8415  8418  8419     9 
 8412  8415  8418  8420     9 
 8412  8415  8418  8421     9 
 8416  8415  8418  8419     9 
 8416  8415  8418  8420     9 
 8416  8415  8418  8421     9 
 8417  8415  8418  8419     9 
 8417  8415  8418  8420     9 
 8417  8415  8418  8421     9 
 8415  8418  8421  8422     9 
 8415  8418  8421  8423     9 
 8415  8418  8421  8424     9 
 8419  8418  8421  8422     9 
 8419  8418  8421  8423     9 
 8419  8418  8421  8424     9 
 8420  8418  8421  8422     9 
 8420  8418  8421  8423     9 
 8420  8418  8421  8424     9 
 8418  8421  8424  8425     9 
 8418  8421  8424  8426     9 
 8418  8421  8424  8427     9 
 8422  8421  8424  8425     9 
 8422  8421  8424  8426     9 
 8422  8421  8424  8427     9 
 8423  8421  8424  8425     9 
 8423  8421  8424  8426     9 
 8423  8421  8424  8427     9 
 8421  8424  8427  8428     9 
 8421  8424  8427  8429     9 
 8421  8424  8427  8430     9 
 8425  8424  8427  8428     9 
 8425  8424  8427  8429     9 
 8425  8424  8427  8430     9 
 8426  8424  8427  8428     9 
 8426  8424  8427  8429     9 
 8426  8424  8427  8430     9 
 8424  8427  8430  8431     9 
 8424  8427  8430  8432     9 
 8424  8427  8430  8433     9 
 8428  8427  8430  8431     9 
 8428  8427  8430  8432     9 
 8428  8427  8430  8433     9 
 8429  8427  8430  8431     9 
 8429  8427  8430  8432     9 
 8429  8427  8430  8433     9 
 8427  8430  8433  8434     9 
 8427  8430  8433  8435     9 
 8427  8430  8433  8436     9 
 8431  8430  8433  8434     9 
 8431  8430  8433  8435     9 
 8431  8430  8433  8436     9 
 8432  8430  8433  8434     9 
 8432  8430  8433  8435     9 
 8432  8430  8433  8436     9 
 8430  8433  8436  8437     9 
 8430  8433  8436  8438     9 
 8430  8433  8436  8439     9 
 8434  8433  8436  8437     9 
 8434  8433  8436  8438     9 
 8434  8433  8436  8439     9 
 8435  8433  8436  8437     9 
 8435  8433  8436  8438     9 
 8435  8433  8436  8439     9 
 8433  8436  8439  8440     9 
 8433  8436  8439  8441     9 
 8433  8436  8439  8442     9 
 8437  8436  8439  8440     9 
 8437  8436  8439  8441     9 
 8437  8436  8439  8442     9 
 8438  8436  8439  8440     9 
 8438  8436  8439  8441     9 
 8438  8436  8439  8442     9 
 8447  8443  8444  8445     9 
 8447  8443  8444  8446     9 
 8447  8443  8444  8459     9 
 8451  8443  8444  8445     9 
 8451  8443  8444  8446     9 
 8451  8443  8444  8459     9 
 8455  8443  8444  8445     9 
 8455  8443  8444  8446     9 
 8455  8443  8444  8459     9 
 8444  8443  8447  8448     9 
 8444  8443  8447  8449     9 
 8444  8443  8447  8450     9 
 8451  8443  8447  8448     9 
 8451  8443  8447  8449     9 
 8451  8443  8447  8450     9 
 8455  8443  8447  8448     9 
 8455  8443  8447  8449     9 
 8455  8443  8447  8450     9 
 8444  8443  8451  8452     9 
 8444  8443  8451  8453     9 
 8444  8443  8451  8454     9 
 8447  8443  8451  8452     9 
 8447  8443  8451  8453     9 
 8447  8443  8451  8454     9 
 8455  8443  8451  8452     9 
 8455  8443  8451  8453     9 
 8455  8443  8451  8454     9 
 8444  8443  8455  8456     9 
 8444  8443  8455  8457     9 
 8444  8443  8455  8458     9 
 8447  8443  8455  8456     9 
 8447  8443  8455  8457     9 
 8447  8443  8455  8458     9 
 8451  8443  8455  8456     9 
 8451  8443  8455  8457     9 
 8451  8443  8455  8458     9 
 8443  8444  8459  8460     9 
 8443  8444  8459  8461     9 
 8443  8444  8459  8465     9 
 8445  8444  8459  8460     9 
 8445  8444  8459  8461     9 
 8445  8444  8459  8465     9 
 8446  8444  8459  8460     9 
 8446  8444  8459  8461     9 
 8446  8444  8459  8465     9 
 8444  8459  8465  8462     9 
 8460  8459  8465  8462     9 
 8461  8459  8465  8462     9 
 8463  8462  8465  8459     9 
 8464  8462  8465  8459     9 
 8466  8462  8465  8459     9 
 8463  8462  8466  8467     9 
 8464  8462  8466  8467     9 
 8465  8462  8466  8467     9 
 8462  8466  8467  8468     9 
 8462  8466  8467  8469     9 
 8462  8466  8467  8470     9 
 8466  8467  8470  8471     9 
 8466  8467  8470  8472     9 
 8466  8467  8470  8478     9 
 8468  8467  8470  8471     9 
 8468  8467  8470  8472     9 
 8468  8467  8470  8478     9 
 8469  8467  8470  8471     9 
 8469  8467  8470  8472     9 
 8469  8467  8470  8478     9 
 8467  8470  8472  8473     9 
 8471  8470  8472  8473     9 
 8478  8470  8472  8473     9 
 8467  8470  8478  8479     9 
 8467  8470  8478  8480     9 
 8467  8470  8478  8481     9 
 8471  8470  8478  8479     9 
 8471  8470  8478  8480     9 
 8471  8470  8478  8481     9 
 8472  8470  8478  8479     9 
 8472  8470  8478  8480     9 
 8472  8470  8478  8481     9 
 8470  8472  8473  8474     9 
 8470  8472  8473  8475     9 
 8472  8473  8475  8476     9 
 8472  8473  8475  8477     9 
 8472  8473  8475  8487     9 
 8474  8473  8475  8476     9 
 8474  8473  8475  8477     9 
 8474  8473  8475  8487     9 
 8473  8475  8487  8488     9 
 8473  8475  8487  8489     9 
 8473  8475  8487  8490     9 
 8476  8475  8487  8488     9 
 8476  8475  8487  8489     9 
 8476  8475  8487  8490     9 
 8477  8475  8487  8488     9 
 8477  8475  8487  8489     9 
 8477  8475  8487  8490     9 
 8470  8478  8481  8482     9 
 8479  8478  8481  8482     9 
 8480  8478  8481  8482     9 
 8478  8481  8482  8483     9 
 8478  8481  8482  8484     9 
 8481  8482  8484  8485     9 
 8481  8482  8484  8486     9 
 8481  8482  8484  8534     9 
 8483  8482  8484  8485     9 
 8483  8482  8484  8486     9 
 8483  8482  8484  8534     9 
 8482  8484  8534  8535     9 
 8482  8484  8534  8536     9 
 8482  8484  8534  8537     9 
 8485  8484  8534  8535     9 
 8485  8484  8534  8536     9 
 8485  8484  8534  8537     9 
 8486  8484  8534  8535     9 
 8486  8484  8534  8536     9 
 8486  8484  8534  8537     9 
 8475  8487  8490  8491     9 
 8475  8487  8490  8492     9 
 8475  8487  8490  8493     9 
 8488  8487  8490  8491     9 
 8488  8487  8490  8492     9 
 8488  8487  8490  8493     9 
 8489  8487  8490  8491     9 
 8489  8487  8490  8492     9 
 8489  8487  8490  8493     9 
 8487  8490  8493  8494     9 
 8487  8490  8493  8495     9 
 8487  8490  8493  8496     9 
 8491  8490  8493  8494     9 
 8491  8490  8493  8495     9 
 8491  8490  8493  8496     9 
 8492  8490  8493  8494     9 
 8492  8490  8493  8495     9 
 8492  8490  8493  8496     9 
 8490  8493  8496  8497     9 
 8490  8493  8496  8498     9 
 8490  8493  8496  8499     9 
 8494  8493  8496  8497     9 
 8494  8493  8496  8498     9 
 8494  8493  8496  8499     9 
 8495  8493  8496  8497     9 
 8495  8493  8496  8498     9 
 8495  8493  8496  8499     9 
 8493  8496  8499  8500     9 
 8493  8496  8499  8501     9 
 8493  8496  8499  8502     9 
 8497  8496  8499  8500     9 
 8497  8496  8499  8501     9 
 8497  8496  8499  8502     9 
 8498  8496  8499  8500     9 
 8498  8496  8499  8501     9 
 8498  8496  8499  8502     9 
 8496  8499  8502  8503     9 
 8496  8499  8502  8504     9 
 8496  8499  8502  8505     9 
 8500  8499  8502  8503     9 
 8500  8499  8502  8504     9 
 8500  8499  8502  8505     9 
 8501  8499  8502  8503     9 
 8501  8499  8502  8504     9 
 8501  8499  8502  8505     9 
 8499  8502  8505  8506     9 
 8499  8502  8505  8507     9 
 8503  8502  8505  8506     9 
 8503  8502  8505  8507     9 
 8504  8502  8505  8506     9 
 8504  8502  8505  8507     9 
 8502  8505  8507  8508     9 
 8502  8505  8507  8509     9 
 8506  8505  8507  8508     9 
 8506  8505  8507  8509     9 
 8505  8507  8509  8510     9 
 8505  8507  8509  8511     9 
 8505  8507  8509  8512     9 
 8508  8507  8509  8510     9 
 8508  8507  8509  8511     9 
 8508  8507  8509  8512     9 
 8507  8509  8512  8513     9 
 8507  8509  8512  8514     9 
 8507  8509  8512  8515     9 
 8510  8509  8512  8513     9 
 8510  8509  8512  8514     9 
 8510  8509  8512  8515     9 
 8511  8509  8512  8513     9 
 8511  8509  8512  8514     9 
 8511  8509  8512  8515     9 
 8509  8512  8515  8516     9 
 8509  8512  8515  8517     9 
 8509  8512  8515  8518     9 
 8513  8512  8515  8516     9 
 8513  8512  8515  8517     9 
 8513  8512  8515  8518     9 
 8514  8512  8515  8516     9 
 8514  8512  8515  8517     9 
 8514  8512  8515  8518     9 
 8512  8515  8518  8519     9 
 8512  8515  8518  8520     9 
 8512  8515  8518  8521     9 
 8516  8515  8518  8519     9 
 8516  8515  8518  8520     9 
 8516  8515  8518  8521     9 
 8517  8515  8518  8519     9 
 8517  8515  8518  8520     9 
 8517  8515  8518  8521     9 
 8515  8518  8521  8522     9 
 8515  8518  8521  8523     9 
 8515  8518  8521  8524     9 
 8519  8518  8521  8522     9 
 8519  8518  8521  8523     9 
 8519  8518  8521  8524     9 
 8520  8518  8521  8522     9 
 8520  8518  8521  8523     9 
 8520  8518  8521  8524     9 
 8518  8521  8524  8525     9 
 8518  8521  8524  8526     9 
 8518  8521  8524  8527     9 
 8522  8521  8524  8525     9 
 8522  8521  8524  8526     9 
 8522  8521  8524  8527     9 
 8523  8521  8524  8525     9 
 8523  8521  8524  8526     9 
 8523  8521  8524  8527     9 
 8521  8524  8527  8528     9 
 8521  8524  8527  8529     9 
 8521  8524  8527  8530     9 
 8525  8524  8527  8528     9 
 8525  8524  8527  8529     9 
 8525  8524  8527  8530     9 
 8526  8524  8527  8528     9 
 8526  8524  8527  8529     9 
 8526  8524  8527  8530     9 
 8524  8527  8530  8531     9 
 8524  8527  8530  8532     9 
 8524  8527  8530  8533     9 
 8528  8527  8530  8531     9 
 8528  8527  8530  8532     9 
 8528  8527  8530  8533     9 
 8529  8527  8530  8531     9 
 8529  8527  8530  8532     9 
 8529  8527  8530  8533     9 
 8484  8534  8537  8538     9 
 8484  8534  8537  8539     9 
 8484  8534  8537  8540     9 
 8535  8534  8537  8538     9 
 8535  8534  8537  8539     9 
 8535  8534  8537  8540     9 
 8536  8534  8537  8538     9 
 8536  8534  8537  8539     9 
 8536  8534  8537  8540     9 
 8534  8537  8540  8541     9 
 8534  8537  8540  8542     9 
 8534  8537  8540  8543     9 
 8538  8537  8540  8541     9 
 8538  8537  8540  8542     9 
 8538  8537  8540  8543     9 
 8539  8537  8540  8541     9 
 8539  8537  8540  8542     9 
 8539  8537  8540  8543     9 
 8537  8540  8543  8544     9 
 8537  8540  8543  8545     9 
 8537  8540  8543  8546     9 
 8541  8540  8543  8544     9 
 8541  8540  8543  8545     9 
 8541  8540  8543  8546     9 
 8542  8540  8543  8544     9 
 8542  8540  8543  8545     9 
 8542  8540  8543  8546     9 
 8540  8543  8546  8547     9 
 8540  8543  8546  8548     9 
 8540  8543  8546  8549     9 
 8544  8543  8546  8547     9 
 8544  8543  8546  8548     9 
 8544  8543  8546  8549     9 
 8545  8543  8546  8547     9 
 8545  8543  8546  8548     9 
 8545  8543  8546  8549     9 
 8543  8546  8549  8550     9 
 8543  8546  8549  8551     9 
 8543  8546  8549  8552     9 
 8547  8546  8549  8550     9 
 8547  8546  8549  8551     9 
 8547  8546  8549  8552     9 
 8548  8546  8549  8550     9 
 8548  8546  8549  8551     9 
 8548  8546  8549  8552     9 
 8546  8549  8552  8553     9 
 8546  8549  8552  8554     9 
 8546  8549  8552  8555     9 
 8550  8549  8552  8553     9 
 8550  8549  8552  8554     9 
 8550  8549  8552  8555     9 
 8551  8549  8552  8553     9 
 8551  8549  8552  8554     9 
 8551  8549  8552  8555     9 
 8549  8552  8555  8556     9 
 8549  8552  8555  8557     9 
 8549  8552  8555  8558     9 
 8553  8552  8555  8556     9 
 8553  8552  8555  8557     9 
 8553  8552  8555  8558     9 
 8554  8552  8555  8556     9 
 8554  8552  8555  8557     9 
 8554  8552  8555  8558     9 
 8552  8555  8558  8559     9 
 8552  8555  8558  8560     9 
 8552  8555  8558  8561     9 
 8556  8555  8558  8559     9 
 8556  8555  8558  8560     9 
 8556  8555  8558  8561     9 
 8557  8555  8558  8559     9 
 8557  8555  8558  8560     9 
 8557  8555  8558  8561     9 
 8555  8558  8561  8562     9 
 8555  8558  8561  8563     9 
 8555  8558  8561  8564     9 
 8559  8558  8561  8562     9 
 8559  8558  8561  8563     9 
 8559  8558  8561  8564     9 
 8560  8558  8561  8562     9 
 8560  8558  8561  8563     9 
 8560  8558  8561  8564     9 
 8558  8561  8564  8565     9 
 8558  8561  8564  8566     9 
 8558  8561  8564  8567     9 
 8562  8561  8564  8565     9 
 8562  8561  8564  8566     9 
 8562  8561  8564  8567     9 
 8563  8561  8564  8565     9 
 8563  8561  8564  8566     9 
 8563  8561  8564  8567     9 
 8561  8564  8567  8568     9 
 8561  8564  8567  8569     9 
 8561  8564  8567  8570     9 
 8565  8564  8567  8568     9 
 8565  8564  8567  8569     9 
 8565  8564  8567  8570     9 
 8566  8564  8567  8568     9 
 8566  8564  8567  8569     9 
 8566  8564  8567  8570     9 
 8564  8567  8570  8571     9 
 8564  8567  8570  8572     9 
 8564  8567  8570  8573     9 
 8568  8567  8570  8571     9 
 8568  8567  8570  8572     9 
 8568  8567  8570  8573     9 
 8569  8567  8570  8571     9 
 8569  8567  8570  8572     9 
 8569  8567  8570  8573     9 
 8567  8570  8573  8574     9 
 8567  8570  8573  8575     9 
 8567  8570  8573  8576     9 
 8571  8570  8573  8574     9 
 8571  8570  8573  8575     9 
 8571  8570  8573  8576     9 
 8572  8570  8573  8574     9 
 8572  8570  8573  8575     9 
 8572  8570  8573  8576     9 
 8581  8577  8578  8579     9 
 8581  8577  8578  8580     9 
 8581  8577  8578  8593     9 
 8585  8577  8578  8579     9 
 8585  8577  8578  8580     9 
 8585  8577  8578  8593     9 
 8589  8577  8578  8579     9 
 8589  8577  8578  8580     9 
 8589  8577  8578  8593     9 
 8578  8577  8581  8582     9 
 8578  8577  8581  8583     9 
 8578  8577  8581  8584     9 
 8585  8577  8581  8582     9 
 8585  8577  8581  8583     9 
 8585  8577  8581  8584     9 
 8589  8577  8581  8582     9 
 8589  8577  8581  8583     9 
 8589  8577  8581  8584     9 
 8578  8577  8585  8586     9 
 8578  8577  8585  8587     9 
 8578  8577  8585  8588     9 
 8581  8577  8585  8586     9 
 8581  8577  8585  8587     9 
 8581  8577  8585  8588     9 
 8589  8577  8585  8586     9 
 8589  8577  8585  8587     9 
 8589  8577  8585  8588     9 
 8578  8577  8589  8590     9 
 8578  8577  8589  8591     9 
 8578  8577  8589  8592     9 
 8581  8577  8589  8590     9 
 8581  8577  8589  8591     9 
 8581  8577  8589  8592     9 
 8585  8577  8589  8590     9 
 8585  8577  8589  8591     9 
 8585  8577  8589  8592     9 
 8577  8578  8593  8594     9 
 8577  8578  8593  8595     9 
 8577  8578  8593  8599     9 
 8579  8578  8593  8594     9 
 8579  8578  8593  8595     9 
 8579  8578  8593  8599     9 
 8580  8578  8593  8594     9 
 8580  8578  8593  8595     9 
 8580  8578  8593  8599     9 
 8578  8593  8599  8596     9 
 8594  8593  8599  8596     9 
 8595  8593  8599  8596     9 
 8597  8596  8599  8593     9 
 8598  8596  8599  8593     9 
 8600  8596  8599  8593     9 
 8597  8596  8600  8601     9 
 8598  8596  8600  8601     9 
 8599  8596  8600  8601     9 
 8596  8600  8601  8602     9 
 8596  8600  8601  8603     9 
 8596  8600  8601  8604     9 
 8600  8601  8604  8605     9 
 8600  8601  8604  8606     9 
 8600  8601  8604  8612     9 
 8602  8601  8604  8605     9 
 8602  8601  8604  8606     9 
 8602  8601  8604  8612     9 
 8603  8601  8604  8605     9 
 8603  8601  8604  8606     9 
 8603  8601  8604  8612     9 
 8601  8604  8606  8607     9 
 8605  8604  8606  8607     9 
 8612  8604  8606  8607     9 
 8601  8604  8612  8613     9 
 8601  8604  8612  8614     9 
 8601  8604  8612  8615     9 
 8605  8604  8612  8613     9 
 8605  8604  8612  8614     9 
 8605  8604  8612  8615     9 
 8606  8604  8612  8613     9 
 8606  8604  8612  8614     9 
 8606  8604  8612  8615     9 
 8604  8606  8607  8608     9 
 8604  8606  8607  8609     9 
 8606  8607  8609  8610     9 
 8606  8607  8609  8611     9 
 8606  8607  8609  8621     9 
 8608  8607  8609  8610     9 
 8608  8607  8609  8611     9 
 8608  8607  8609  8621     9 
 8607  8609  8621  8622     9 
 8607  8609  8621  8623     9 
 8607  8609  8621  8624     9 
 8610  8609  8621  8622     9 
 8610  8609  8621  8623     9 
 8610  8609  8621  8624     9 
 8611  8609  8621  8622     9 
 8611  8609  8621  8623     9 
 8611  8609  8621  8624     9 
 8604  8612  8615  8616     9 
 8613  8612  8615  8616     9 
 8614  8612  8615  8616     9 
 8612  8615  8616  8617     9 
 8612  8615  8616  8618     9 
 8615  8616  8618  8619     9 
 8615  8616  8618  8620     9 
 8615  8616  8618  8668     9 
 8617  8616  8618  8619     9 
 8617  8616  8618  8620     9 
 8617  8616  8618  8668     9 
 8616  8618  8668  8669     9 
 8616  8618  8668  8670     9 
 8616  8618  8668  8671     9 
 8619  8618  8668  8669     9 
 8619  8618  8668  8670     9 
 8619  8618  8668  8671     9 
 8620  8618  8668  8669     9 
 8620  8618  8668  8670     9 
 8620  8618  8668  8671     9 
 8609  8621  8624  8625     9 
 8609  8621  8624  8626     9 
 8609  8621  8624  8627     9 
 8622  8621  8624  8625     9 
 8622  8621  8624  8626     9 
 8622  8621  8624  8627     9 
 8623  8621  8624  8625     9 
 8623  8621  8624  8626     9 
 8623  8621  8624  8627     9 
 8621  8624  8627  8628     9 
 8621  8624  8627  8629     9 
 8621  8624  8627  8630     9 
 8625  8624  8627  8628     9 
 8625  8624  8627  8629     9 
 8625  8624  8627  8630     9 
 8626  8624  8627  8628     9 
 8626  8624  8627  8629     9 
 8626  8624  8627  8630     9 
 8624  8627  8630  8631     9 
 8624  8627  8630  8632     9 
 8624  8627  8630  8633     9 
 8628  8627  8630  8631     9 
 8628  8627  8630  8632     9 
 8628  8627  8630  8633     9 
 8629  8627  8630  8631     9 
 8629  8627  8630  8632     9 
 8629  8627  8630  8633     9 
 8627  8630  8633  8634     9 
 8627  8630  8633  8635     9 
 8627  8630  8633  8636     9 
 8631  8630  8633  8634     9 
 8631  8630  8633  8635     9 
 8631  8630  8633  8636     9 
 8632  8630  8633  8634     9 
 8632  8630  8633  8635     9 
 8632  8630  8633  8636     9 
 8630  8633  8636  8637     9 
 8630  8633  8636  8638     9 
 8630  8633  8636  8639     9 
 8634  8633  8636  8637     9 
 8634  8633  8636  8638     9 
 8634  8633  8636  8639     9 
 8635  8633  8636  8637     9 
 8635  8633  8636  8638     9 
 8635  8633  8636  8639     9 
 8633  8636  8639  8640     9 
 8633  8636  8639  8641     9 
 8637  8636  8639  8640     9 
 8637  8636  8639  8641     9 
 8638  8636  8639  8640     9 
 8638  8636  8639  8641     9 
 8636  8639  8641  8642     9 
 8636  8639  8641  8643     9 
 8640  8639  8641  8642     9 
 8640  8639  8641  8643     9 
 8639  8641  8643  8644     9 
 8639  8641  8643  8645     9 
 8639  8641  8643  8646     9 
 8642  8641  8643  8644     9 
 8642  8641  8643  8645     9 
 8642  8641  8643  8646     9 
 8641  8643  8646  8647     9 
 8641  8643  8646  8648     9 
 8641  8643  8646  8649     9 
 8644  8643  8646  8647     9 
 8644  8643  8646  8648     9 
 8644  8643  8646  8649     9 
 8645  8643  8646  8647     9 
 8645  8643  8646  8648     9 
 8645  8643  8646  8649     9 
 8643  8646  8649  8650     9 
 8643  8646  8649  8651     9 
 8643  8646  8649  8652     9 
 8647  8646  8649  8650     9 
 8647  8646  8649  8651     9 
 8647  8646  8649  8652     9 
 8648  8646  8649  8650     9 
 8648  8646  8649  8651     9 
 8648  8646  8649  8652     9 
 8646  8649  8652  8653     9 
 8646  8649  8652  8654     9 
 8646  8649  8652  8655     9 
 8650  8649  8652  8653     9 
 8650  8649  8652  8654     9 
 8650  8649  8652  8655     9 
 8651  8649  8652  8653     9 
 8651  8649  8652  8654     9 
 8651  8649  8652  8655     9 
 8649  8652  8655  8656     9 
 8649  8652  8655  8657     9 
 8649  8652  8655  8658     9 
 8653  8652  8655  8656     9 
 8653  8652  8655  8657     9 
 8653  8652  8655  8658     9 
 8654  8652  8655  8656     9 
 8654  8652  8655  8657     9 
 8654  8652  8655  8658     9 
 8652  8655  8658  8659     9 
 8652  8655  8658  8660     9 
 8652  8655  8658  8661     9 
 8656  8655  8658  8659     9 
 8656  8655  8658  8660     9 
 8656  8655  8658  8661     9 
 8657  8655  8658  8659     9 
 8657  8655  8658  8660     9 
 8657  8655  8658  8661     9 
 8655  8658  8661  8662     9 
 8655  8658  8661  8663     9 
 8655  8658  8661  8664     9 
 8659  8658  8661  8662     9 
 8659  8658  8661  8663     9 
 8659  8658  8661  8664     9 
 8660  8658  8661  8662     9 
 8660  8658  8661  8663     9 
 8660  8658  8661  8664     9 
 8658  8661  8664  8665     9 
 8658  8661  8664  8666     9 
 8658  8661  8664  8667     9 
 8662  8661  8664  8665     9 
 8662  8661  8664  8666     9 
 8662  8661  8664  8667     9 
 8663  8661  8664  8665     9 
 8663  8661  8664  8666     9 
 8663  8661  8664  8667     9 
 8618  8668  8671  8672     9 
 8618  8668  8671  8673     9 
 8618  8668  8671  8674     9 
 8669  8668  8671  8672     9 
 8669  8668  8671  8673     9 
 8669  8668  8671  8674     9 
 8670  8668  8671  8672     9 
 8670  8668  8671  8673     9 
 8670  8668  8671  8674     9 
 8668  8671  8674  8675     9 
 8668  8671  8674  8676     9 
 8668  8671  8674  8677     9 
 8672  8671  8674  8675     9 
 8672  8671  8674  8676     9 
 8672  8671  8674  8677     9 
 8673  8671  8674  8675     9 
 8673  8671  8674  8676     9 
 8673  8671  8674  8677     9 
 8671  8674  8677  8678     9 
 8671  8674  8677  8679     9 
 8671  8674  8677  8680     9 
 8675  8674  8677  8678     9 
 8675  8674  8677  8679     9 
 8675  8674  8677  8680     9 
 8676  8674  8677  8678     9 
 8676  8674  8677  8679     9 
 8676  8674  8677  8680     9 
 8674  8677  8680  8681     9 
 8674  8677  8680  8682     9 
 8674  8677  8680  8683     9 
 8678  8677  8680  8681     9 
 8678  8677  8680  8682     9 
 8678  8677  8680  8683     9 
 8679  8677  8680  8681     9 
 8679  8677  8680  8682     9 
 8679  8677  8680  8683     9 
 8677  8680  8683  8684     9 
 8677  8680  8683  8685     9 
 8677  8680  8683  8686     9 
 8681  8680  8683  8684     9 
 8681  8680  8683  8685     9 
 8681  8680  8683  8686     9 
 8682  8680  8683  8684     9 
 8682  8680  8683  8685     9 
 8682  8680  8683  8686     9 
 8680  8683  8686  8687     9 
 8680  8683  8686  8688     9 
 8680  8683  8686  8689     9 
 8684  8683  8686  8687     9 
 8684  8683  8686  8688     9 
 8684  8683  8686  8689     9 
 8685  8683  8686  8687     9 
 8685  8683  8686  8688     9 
 8685  8683  8686  8689     9 
 8683  8686  8689  8690     9 
 8683  8686  8689  8691     9 
 8683  8686  8689  8692     9 
 8687  8686  8689  8690     9 
 8687  8686  8689  8691     9 
 8687  8686  8689  8692     9 
 8688  8686  8689  8690     9 
 8688  8686  8689  8691     9 
 8688  8686  8689  8692     9 
 8686  8689  8692  8693     9 
 8686  8689  8692  8694     9 
 8686  8689  8692  8695     9 
 8690  8689  8692  8693     9 
 8690  8689  8692  8694     9 
 8690  8689  8692  8695     9 
 8691  8689  8692  8693     9 
 8691  8689  8692  8694     9 
 8691  8689  8692  8695     9 
 8689  8692  8695  8696     9 
 8689  8692  8695  8697     9 
 8689  8692  8695  8698     9 
 8693  8692  8695  8696     9 
 8693  8692  8695  8697     9 
 8693  8692  8695  8698     9 
 8694  8692  8695  8696     9 
 8694  8692  8695  8697     9 
 8694  8692  8695  8698     9 
 8692  8695  8698  8699     9 
 8692  8695  8698  8700     9 
 8692  8695  8698  8701     9 
 8696  8695  8698  8699     9 
 8696  8695  8698  8700     9 
 8696  8695  8698  8701     9 
 8697  8695  8698  8699     9 
 8697  8695  8698  8700     9 
 8697  8695  8698  8701     9 
 8695  8698  8701  8702     9 
 8695  8698  8701  8703     9 
 8695  8698  8701  8704     9 
 8699  8698  8701  8702     9 
 8699  8698  8701  8703     9 
 8699  8698  8701  8704     9 
 8700  8698  8701  8702     9 
 8700  8698  8701  8703     9 
 8700  8698  8701  8704     9 
 8698  8701  8704  8705     9 
 8698  8701  8704  8706     9 
 8698  8701  8704  8707     9 
 8702  8701  8704  8705     9 
 8702  8701  8704  8706     9 
 8702  8701  8704  8707     9 
 8703  8701  8704  8705     9 
 8703  8701  8704  8706     9 
 8703  8701  8704  8707     9 
 8701  8704  8707  8708     9 
 8701  8704  8707  8709     9 
 8701  8704  8707  8710     9 
 8705  8704  8707  8708     9 
 8705  8704  8707  8709     9 
 8705  8704  8707  8710     9 
 8706  8704  8707  8708     9 
 8706  8704  8707  8709     9 
 8706  8704  8707  8710     9 
 8715  8711  8712  8713     9 
 8715  8711  8712  8714     9 
 8715  8711  8712  8727     9 
 8719  8711  8712  8713     9 
 8719  8711  8712  8714     9 
 8719  8711  8712  8727     9 
 8723  8711  8712  8713     9 
 8723  8711  8712  8714     9 
 8723  8711  8712  8727     9 
 8712  8711  8715  8716     9 
 8712  8711  8715  8717     9 
 8712  8711  8715  8718     9 
 8719  8711  8715  8716     9 
 8719  8711  8715  8717     9 
 8719  8711  8715  8718     9 
 8723  8711  8715  8716     9 
 8723  8711  8715  8717     9 
 8723  8711  8715  8718     9 
 8712  8711  8719  8720     9 
 8712  8711  8719  8721     9 
 8712  8711  8719  8722     9 
 8715  8711  8719  8720     9 
 8715  8711  8719  8721     9 
 8715  8711  8719  8722     9 
 8723  8711  8719  8720     9 
 8723  8711  8719  8721     9 
 8723  8711  8719  8722     9 
 8712  8711  8723  8724     9 
 8712  8711  8723  8725     9 
 8712  8711  8723  8726     9 
 8715  8711  8723  8724     9 
 8715  8711  8723  8725     9 
 8715  8711  8723  8726     9 
 8719  8711  8723  8724     9 
 8719  8711  8723  8725     9 
 8719  8711  8723  8726     9 
 8711  8712  8727  8728     9 
 8711  8712  8727  8729     9 
 8711  8712  8727  8733     9 
 8713  8712  8727  8728     9 
 8713  8712  8727  8729     9 
 8713  8712  8727  8733     9 
 8714  8712  8727  8728     9 
 8714  8712  8727  8729     9 
 8714  8712  8727  8733     9 
 8712  8727  8733  8730     9 
 8728  8727  8733  8730     9 
 8729  8727  8733  8730     9 
 8731  8730  8733  8727     9 
 8732  8730  8733  8727     9 
 8734  8730  8733  8727     9 
 8731  8730  8734  8735     9 
 8732  8730  8734  8735     9 
 8733  8730  8734  8735     9 
 8730  8734  8735  8736     9 
 8730  8734  8735  8737     9 
 8730  8734  8735  8738     9 
 8734  8735  8738  8739     9 
 8734  8735  8738  8740     9 
 8734  8735  8738  8746     9 
 8736  8735  8738  8739     9 
 8736  8735  8738  8740     9 
 8736  8735  8738  8746     9 
 8737  8735  8738  8739     9 
 8737  8735  8738  8740     9 
 8737  8735  8738  8746     9 
 8735  8738  8740  8741     9 
 8739  8738  8740  8741     9 
 8746  8738  8740  8741     9 
 8735  8738  8746  8747     9 
 8735  8738  8746  8748     9 
 8735  8738  8746  8749     9 
 8739  8738  8746  8747     9 
 8739  8738  8746  8748     9 
 8739  8738  8746  8749     9 
 8740  8738  8746  8747     9 
 8740  8738  8746  8748     9 
 8740  8738  8746  8749     9 
 8738  8740  8741  8742     9 
 8738  8740  8741  8743     9 
 8740  8741  8743  8744     9 
 8740  8741  8743  8745     9 
 8740  8741  8743  8755     9 
 8742  8741  8743  8744     9 
 8742  8741  8743  8745     9 
 8742  8741  8743  8755     9 
 8741  8743  8755  8756     9 
 8741  8743  8755  8757     9 
 8741  8743  8755  8758     9 
 8744  8743  8755  8756     9 
 8744  8743  8755  8757     9 
 8744  8743  8755  8758     9 
 8745  8743  8755  8756     9 
 8745  8743  8755  8757     9 
 8745  8743  8755  8758     9 
 8738  8746  8749  8750     9 
 8747  8746  8749  8750     9 
 8748  8746  8749  8750     9 
 8746  8749  8750  8751     9 
 8746  8749  8750  8752     9 
 8749  8750  8752  8753     9 
 8749  8750  8752  8754     9 
 8749  8750  8752  8802     9 
 8751  8750  8752  8753     9 
 8751  8750  8752  8754     9 
 8751  8750  8752  8802     9 
 8750  8752  8802  8803     9 
 8750  8752  8802  8804     9 
 8750  8752  8802  8805     9 
 8753  8752  8802  8803     9 
 8753  8752  8802  8804     9 
 8753  8752  8802  8805     9 
 8754  8752  8802  8803     9 
 8754  8752  8802  8804     9 
 8754  8752  8802  8805     9 
 8743  8755  8758  8759     9 
 8743  8755  8758  8760     9 
 8743  8755  8758  8761     9 
 8756  8755  8758  8759     9 
 8756  8755  8758  8760     9 
 8756  8755  8758  8761     9 
 8757  8755  8758  8759     9 
 8757  8755  8758  8760     9 
 8757  8755  8758  8761     9 
 8755  8758  8761  8762     9 
 8755  8758  8761  8763     9 
 8755  8758  8761  8764     9 
 8759  8758  8761  8762     9 
 8759  8758  8761  8763     9 
 8759  8758  8761  8764     9 
 8760  8758  8761  8762     9 
 8760  8758  8761  8763     9 
 8760  8758  8761  8764     9 
 8758  8761  8764  8765     9 
 8758  8761  8764  8766     9 
 8758  8761  8764  8767     9 
 8762  8761  8764  8765     9 
 8762  8761  8764  8766     9 
 8762  8761  8764  8767     9 
 8763  8761  8764  8765     9 
 8763  8761  8764  8766     9 
 8763  8761  8764  8767     9 
 8761  8764  8767  8768     9 
 8761  8764  8767  8769     9 
 8761  8764  8767  8770     9 
 8765  8764  8767  8768     9 
 8765  8764  8767  8769     9 
 8765  8764  8767  8770     9 
 8766  8764  8767  8768     9 
 8766  8764  8767  8769     9 
 8766  8764  8767  8770     9 
 8764  8767  8770  8771     9 
 8764  8767  8770  8772     9 
 8764  8767  8770  8773     9 
 8768  8767  8770  8771     9 
 8768  8767  8770  8772     9 
 8768  8767  8770  8773     9 
 8769  8767  8770  8771     9 
 8769  8767  8770  8772     9 
 8769  8767  8770  8773     9 
 8767  8770  8773  8774     9 
 8767  8770  8773  8775     9 
 8771  8770  8773  8774     9 
 8771  8770  8773  8775     9 
 8772  8770  8773  8774     9 
 8772  8770  8773  8775     9 
 8770  8773  8775  8776     9 
 8770  8773  8775  8777     9 
 8774  8773  8775  8776     9 
 8774  8773  8775  8777     9 
 8773  8775  8777  8778     9 
 8773  8775  8777  8779     9 
 8773  8775  8777  8780     9 
 8776  8775  8777  8778     9 
 8776  8775  8777  8779     9 
 8776  8775  8777  8780     9 
 8775  8777  8780  8781     9 
 8775  8777  8780  8782     9 
 8775  8777  8780  8783     9 
 8778  8777  8780  8781     9 
 8778  8777  8780  8782     9 
 8778  8777  8780  8783     9 
 8779  8777  8780  8781     9 
 8779  8777  8780  8782     9 
 8779  8777  8780  8783     9 
 8777  8780  8783  8784     9 
 8777  8780  8783  8785     9 
 8777  8780  8783  8786     9 
 8781  8780  8783  8784     9 
 8781  8780  8783  8785     9 
 8781  8780  8783  8786     9 
 8782  8780  8783  8784     9 
 8782  8780  8783  8785     9 
 8782  8780  8783  8786     9 
 8780  8783  8786  8787     9 
 8780  8783  8786  8788     9 
 8780  8783  8786  8789     9 
 8784  8783  8786  8787     9 
 8784  8783  8786  8788     9 
 8784  8783  8786  8789     9 
 8785  8783  8786  8787     9 
 8785  8783  8786  8788     9 
 8785  8783  8786  8789     9 
 8783  8786  8789  8790     9 
 8783  8786  8789  8791     9 
 8783  8786  8789  8792     9 
 8787  8786  8789  8790     9 
 8787  8786  8789  8791     9 
 8787  8786  8789  8792     9 
 8788  8786  8789  8790     9 
 8788  8786  8789  8791     9 
 8788  8786  8789  8792     9 
 8786  8789  8792  8793     9 
 8786  8789  8792  8794     9 
 8786  8789  8792  8795     9 
 8790  8789  8792  8793     9 
 8790  8789  8792  8794     9 
 8790  8789  8792  8795     9 
 8791  8789  8792  8793     9 
 8791  8789  8792  8794     9 
 8791  8789  8792  8795     9 
 8789  8792  8795  8796     9 
 8789  8792  8795  8797     9 
 8789  8792  8795  8798     9 
 8793  8792  8795  8796     9 
 8793  8792  8795  8797     9 
 8793  8792  8795  8798     9 
 8794  8792  8795  8796     9 
 8794  8792  8795  8797     9 
 8794  8792  8795  8798     9 
 8792  8795  8798  8799     9 
 8792  8795  8798  8800     9 
 8792  8795  8798  8801     9 
 8796  8795  8798  8799     9 
 8796  8795  8798  8800     9 
 8796  8795  8798  8801     9 
 8797  8795  8798  8799     9 
 8797  8795  8798  8800     9 
 8797  8795  8798  8801     9 
 8752  8802  8805  8806     9 
 8752  8802  8805  8807     9 
 8752  8802  8805  8808     9 
 8803  8802  8805  8806     9 
 8803  8802  8805  8807     9 
 8803  8802  8805  8808     9 
 8804  8802  8805  8806     9 
 8804  8802  8805  8807     9 
 8804  8802  8805  8808     9 
 8802  8805  8808  8809     9 
 8802  8805  8808  8810     9 
 8802  8805  8808  8811     9 
 8806  8805  8808  8809     9 
 8806  8805  8808  8810     9 
 8806  8805  8808  8811     9 
 8807  8805  8808  8809     9 
 8807  8805  8808  8810     9 
 8807  8805  8808  8811     9 
 8805  8808  8811  8812     9 
 8805  8808  8811  8813     9 
 8805  8808  8811  8814     9 
 8809  8808  8811  8812     9 
 8809  8808  8811  8813     9 
 8809  8808  8811  8814     9 
 8810  8808  8811  8812     9 
 8810  8808  8811  8813     9 
 8810  8808  8811  8814     9 
 8808  8811  8814  8815     9 
 8808  8811  8814  8816     9 
 8808  8811  8814  8817     9 
 8812  8811  8814  8815     9 
 8812  8811  8814  8816     9 
 8812  8811  8814  8817     9 
 8813  8811  8814  8815     9 
 8813  8811  8814  8816     9 
 8813  8811  8814  8817     9 
 8811  8814  8817  8818     9 
 8811  8814  8817  8819     9 
 8811  8814  8817  8820     9 
 8815  8814  8817  8818     9 
 8815  8814  8817  8819     9 
 8815  8814  8817  8820     9 
 8816  8814  8817  8818     9 
 8816  8814  8817  8819     9 
 8816  8814  8817  8820     9 
 8814  8817  8820  8821     9 
 8814  8817  8820  8822     9 
 8814  8817  8820  8823     9 
 8818  8817  8820  8821     9 
 8818  8817  8820  8822     9 
 8818  8817  8820  8823     9 
 8819  8817  8820  8821     9 
 8819  8817  8820  8822     9 
 8819  8817  8820  8823     9 
 8817  8820  8823  8824     9 
 8817  8820  8823  8825     9 
 8817  8820  8823  8826     9 
 8821  8820  8823  8824     9 
 8821  8820  8823  8825     9 
 8821  8820  8823  8826     9 
 8822  8820  8823  8824     9 
 8822  8820  8823  8825     9 
 8822  8820  8823  8826     9 
 8820  8823  8826  8827     9 
 8820  8823  8826  8828     9 
 8820  8823  8826  8829     9 
 8824  8823  8826  8827     9 
 8824  8823  8826  8828     9 
 8824  8823  8826  8829     9 
 8825  8823  8826  8827     9 
 8825  8823  8826  8828     9 
 8825  8823  8826  8829     9 
 8823  8826  8829  8830     9 
 8823  8826  8829  8831     9 
 8823  8826  8829  8832     9 
 8827  8826  8829  8830     9 
 8827  8826  8829  8831     9 
 8827  8826  8829  8832     9 
 8828  8826  8829  8830     9 
 8828  8826  8829  8831     9 
 8828  8826  8829  8832     9 
 8826  8829  8832  8833     9 
 8826  8829  8832  8834     9 
 8826  8829  8832  8835     9 
 8830  8829  8832  8833     9 
 8830  8829  8832  8834     9 
 8830  8829  8832  8835     9 
 8831  8829  8832  8833     9 
 8831  8829  8832  8834     9 
 8831  8829  8832  8835     9 
 8829  8832  8835  8836     9 
 8829  8832  8835  8837     9 
 8829  8832  8835  8838     9 
 8833  8832  8835  8836     9 
 8833  8832  8835  8837     9 
 8833  8832  8835  8838     9 
 8834  8832  8835  8836     9 
 8834  8832  8835  8837     9 
 8834  8832  8835  8838     9 
 8832  8835  8838  8839     9 
 8832  8835  8838  8840     9 
 8832  8835  8838  8841     9 
 8836  8835  8838  8839     9 
 8836  8835  8838  8840     9 
 8836  8835  8838  8841     9 
 8837  8835  8838  8839     9 
 8837  8835  8838  8840     9 
 8837  8835  8838  8841     9 
 8835  8838  8841  8842     9 
 8835  8838  8841  8843     9 
 8835  8838  8841  8844     9 
 8839  8838  8841  8842     9 
 8839  8838  8841  8843     9 
 8839  8838  8841  8844     9 
 8840  8838  8841  8842     9 
 8840  8838  8841  8843     9 
 8840  8838  8841  8844     9 
 8849  8845  8846  8847     9 
 8849  8845  8846  8848     9 
 8849  8845  8846  8861     9 
 8853  8845  8846  8847     9 
 8853  8845  8846  8848     9 
 8853  8845  8846  8861     9 
 8857  8845  8846  8847     9 
 8857  8845  8846  8848     9 
 8857  8845  8846  8861     9 
 8846  8845  8849  8850     9 
 8846  8845  8849  8851     9 
 8846  8845  8849  8852     9 
 8853  8845  8849  8850     9 
 8853  8845  8849  8851     9 
 8853  8845  8849  8852     9 
 8857  8845  8849  8850     9 
 8857  8845  8849  8851     9 
 8857  8845  8849  8852     9 
 8846  8845  8853  8854     9 
 8846  8845  8853  8855     9 
 8846  8845  8853  8856     9 
 8849  8845  8853  8854     9 
 8849  8845  8853  8855     9 
 8849  8845  8853  8856     9 
 8857  8845  8853  8854     9 
 8857  8845  8853  8855     9 
 8857  8845  8853  8856     9 
 8846  8845  8857  8858     9 
 8846  8845  8857  8859     9 
 8846  8845  8857  8860     9 
 8849  8845  8857  8858     9 
 8849  8845  8857  8859     9 
 8849  8845  8857  8860     9 
 8853  8845  8857  8858     9 
 8853  8845  8857  8859     9 
 8853  8845  8857  8860     9 
 8845  8846  8861  8862     9 
 8845  8846  8861  8863     9 
 8845  8846  8861  8867     9 
 8847  8846  8861  8862     9 
 8847  8846  8861  8863     9 
 8847  8846  8861  8867     9 
 8848  8846  8861  8862     9 
 8848  8846  8861  8863     9 
 8848  8846  8861  8867     9 
 8846  8861  8867  8864     9 
 8862  8861  8867  8864     9 
 8863  8861  8867  8864     9 
 8865  8864  8867  8861     9 
 8866  8864  8867  8861     9 
 8868  8864  8867  8861     9 
 8865  8864  8868  8869     9 
 8866  8864  8868  8869     9 
 8867  8864  8868  8869     9 
 8864  8868  8869  8870     9 
 8864  8868  8869  8871     9 
 8864  8868  8869  8872     9 
 8868  8869  8872  8873     9 
 8868  8869  8872  8874     9 
 8868  8869  8872  8880     9 
 8870  8869  8872  8873     9 
 8870  8869  8872  8874     9 
 8870  8869  8872  8880     9 
 8871  8869  8872  8873     9 
 8871  8869  8872  8874     9 
 8871  8869  8872  8880     9 
 8869  8872  8874  8875     9 
 8873  8872  8874  8875     9 
 8880  8872  8874  8875     9 
 8869  8872  8880  8881     9 
 8869  8872  8880  8882     9 
 8869  8872  8880  8883     9 
 8873  8872  8880  8881     9 
 8873  8872  8880  8882     9 
 8873  8872  8880  8883     9 
 8874  8872  8880  8881     9 
 8874  8872  8880  8882     9 
 8874  8872  8880  8883     9 
 8872  8874  8875  8876     9 
 8872  8874  8875  8877     9 
 8874  8875  8877  8878     9 
 8874  8875  8877  8879     9 
 8874  8875  8877  8889     9 
 8876  8875  8877  8878     9 
 8876  8875  8877  8879     9 
 8876  8875  8877  8889     9 
 8875  8877  8889  8890     9 
 8875  8877  8889  8891     9 
 8875  8877  8889  8892     9 
 8878  8877  8889  8890     9 
 8878  8877  8889  8891     9 
 8878  8877  8889  8892     9 
 8879  8877  8889  8890     9 
 8879  8877  8889  8891     9 
 8879  8877  8889  8892     9 
 8872  8880  8883  8884     9 
 8881  8880  8883  8884     9 
 8882  8880  8883  8884     9 
 8880  8883  8884  8885     9 
 8880  8883  8884  8886     9 
 8883  8884  8886  8887     9 
 8883  8884  8886  8888     9 
 8883  8884  8886  8936     9 
 8885  8884  8886  8887     9 
 8885  8884  8886  8888     9 
 8885  8884  8886  8936     9 
 8884  8886  8936  8937     9 
 8884  8886  8936  8938     9 
 8884  8886  8936  8939     9 
 8887  8886  8936  8937     9 
 8887  8886  8936  8938     9 
 8887  8886  8936  8939     9 
 8888  8886  8936  8937     9 
 8888  8886  8936  8938     9 
 8888  8886  8936  8939     9 
 8877  8889  8892  8893     9 
 8877  8889  8892  8894     9 
 8877  8889  8892  8895     9 
 8890  8889  8892  8893     9 
 8890  8889  8892  8894     9 
 8890  8889  8892  8895     9 
 8891  8889  8892  8893     9 
 8891  8889  8892  8894     9 
 8891  8889  8892  8895     9 
 8889  8892  8895  8896     9 
 8889  8892  8895  8897     9 
 8889  8892  8895  8898     9 
 8893  8892  8895  8896     9 
 8893  8892  8895  8897     9 
 8893  8892  8895  8898     9 
 8894  8892  8895  8896     9 
 8894  8892  8895  8897     9 
 8894  8892  8895  8898     9 
 8892  8895  8898  8899     9 
 8892  8895  8898  8900     9 
 8892  8895  8898  8901     9 
 8896  8895  8898  8899     9 
 8896  8895  8898  8900     9 
 8896  8895  8898  8901     9 
 8897  8895  8898  8899     9 
 8897  8895  8898  8900     9 
 8897  8895  8898  8901     9 
 8895  8898  8901  8902     9 
 8895  8898  8901  8903     9 
 8895  8898  8901  8904     9 
 8899  8898  8901  8902     9 
 8899  8898  8901  8903     9 
 8899  8898  8901  8904     9 
 8900  8898  8901  8902     9 
 8900  8898  8901  8903     9 
 8900  8898  8901  8904     9 
 8898  8901  8904  8905     9 
 8898  8901  8904  8906     9 
 8898  8901  8904  8907     9 
 8902  8901  8904  8905     9 
 8902  8901  8904  8906     9 
 8902  8901  8904  8907     9 
 8903  8901  8904  8905     9 
 8903  8901  8904  8906     9 
 8903  8901  8904  8907     9 
 8901  8904  8907  8908     9 
 8901  8904  8907  8909     9 
 8905  8904  8907  8908     9 
 8905  8904  8907  8909     9 
 8906  8904  8907  8908     9 
 8906  8904  8907  8909     9 
 8904  8907  8909  8910     9 
 8904  8907  8909  8911     9 
 8908  8907  8909  8910     9 
 8908  8907  8909  8911     9 
 8907  8909  8911  8912     9 
 8907  8909  8911  8913     9 
 8907  8909  8911  8914     9 
 8910  8909  8911  8912     9 
 8910  8909  8911  8913     9 
 8910  8909  8911  8914     9 
 8909  8911  8914  8915     9 
 8909  8911  8914  8916     9 
 8909  8911  8914  8917     9 
 8912  8911  8914  8915     9 
 8912  8911  8914  8916     9 
 8912  8911  8914  8917     9 
 8913  8911  8914  8915     9 
 8913  8911  8914  8916     9 
 8913  8911  8914  8917     9 
 8911  8914  8917  8918     9 
 8911  8914  8917  8919     9 
 8911  8914  8917  8920     9 
 8915  8914  8917  8918     9 
 8915  8914  8917  8919     9 
 8915  8914  8917  8920     9 
 8916  8914  8917  8918     9 
 8916  8914  8917  8919     9 
 8916  8914  8917  8920     9 
 8914  8917  8920  8921     9 
 8914  8917  8920  8922     9 
 8914  8917  8920  8923     9 
 8918  8917  8920  8921     9 
 8918  8917  8920  8922     9 
 8918  8917  8920  8923     9 
 8919  8917  8920  8921     9 
 8919  8917  8920  8922     9 
 8919  8917  8920  8923     9 
 8917  8920  8923  8924     9 
 8917  8920  8923  8925     9 
 8917  8920  8923  8926     9 
 8921  8920  8923  8924     9 
 8921  8920  8923  8925     9 
 8921  8920  8923  8926     9 
 8922  8920  8923  8924     9 
 8922  8920  8923  8925     9 
 8922  8920  8923  8926     9 
 8920  8923  8926  8927     9 
 8920  8923  8926  8928     9 
 8920  8923  8926  8929     9 
 8924  8923  8926  8927     9 
 8924  8923  8926  8928     9 
 8924  8923  8926  8929     9 
 8925  8923  8926  8927     9 
 8925  8923  8926  8928     9 
 8925  8923  8926  8929     9 
 8923  8926  8929  8930     9 
 8923  8926  8929  8931     9 
 8923  8926  8929  8932     9 
 8927  8926  8929  8930     9 
 8927  8926  8929  8931     9 
 8927  8926  8929  8932     9 
 8928  8926  8929  8930     9 
 8928  8926  8929  8931     9 
 8928  8926  8929  8932     9 
 8926  8929  8932  8933     9 
 8926  8929  8932  8934     9 
 8926  8929  8932  8935     9 
 8930  8929  8932  8933     9 
 8930  8929  8932  8934     9 
 8930  8929  8932  8935     9 
 8931  8929  8932  8933     9 
 8931  8929  8932  8934     9 
 8931  8929  8932  8935     9 
 8886  8936  8939  8940     9 
 8886  8936  8939  8941     9 
 8886  8936  8939  8942     9 
 8937  8936  8939  8940     9 
 8937  8936  8939  8941     9 
 8937  8936  8939  8942     9 
 8938  8936  8939  8940     9 
 8938  8936  8939  8941     9 
 8938  8936  8939  8942     9 
 8936  8939  8942  8943     9 
 8936  8939  8942  8944     9 
 8936  8939  8942  8945     9 
 8940  8939  8942  8943     9 
 8940  8939  8942  8944     9 
 8940  8939  8942  8945     9 
 8941  8939  8942  8943     9 
 8941  8939  8942  8944     9 
 8941  8939  8942  8945     9 
 8939  8942  8945  8946     9 
 8939  8942  8945  8947     9 
 8939  8942  8945  8948     9 
 8943  8942  8945  8946     9 
 8943  8942  8945  8947     9 
 8943  8942  8945  8948     9 
 8944  8942  8945  8946     9 
 8944  8942  8945  8947     9 
 8944  8942  8945  8948     9 
 8942  8945  8948  8949     9 
 8942  8945  8948  8950     9 
 8942  8945  8948  8951     9 
 8946  8945  8948  8949     9 
 8946  8945  8948  8950     9 
 8946  8945  8948  8951     9 
 8947  8945  8948  8949     9 
 8947  8945  8948  8950     9 
 8947  8945  8948  8951     9 
 8945  8948  8951  8952     9 
 8945  8948  8951  8953     9 
 8945  8948  8951  8954     9 
 8949  8948  8951  8952     9 
 8949  8948  8951  8953     9 
 8949  8948  8951  8954     9 
 8950  8948  8951  8952     9 
 8950  8948  8951  8953     9 
 8950  8948  8951  8954     9 
 8948  8951  8954  8955     9 
 8948  8951  8954  8956     9 
 8948  8951  8954  8957     9 
 8952  8951  8954  8955     9 
 8952  8951  8954  8956     9 
 8952  8951  8954  8957     9 
 8953  8951  8954  8955     9 
 8953  8951  8954  8956     9 
 8953  8951  8954  8957     9 
 8951  8954  8957  8958     9 
 8951  8954  8957  8959     9 
 8951  8954  8957  8960     9 
 8955  8954  8957  8958     9 
 8955  8954  8957  8959     9 
 8955  8954  8957  8960     9 
 8956  8954  8957  8958     9 
 8956  8954  8957  8959     9 
 8956  8954  8957  8960     9 
 8954  8957  8960  8961     9 
 8954  8957  8960  8962     9 
 8954  8957  8960  8963     9 
 8958  8957  8960  8961     9 
 8958  8957  8960  8962     9 
 8958  8957  8960  8963     9 
 8959  8957  8960  8961     9 
 8959  8957  8960  8962     9 
 8959  8957  8960  8963     9 
 8957  8960  8963  8964     9 
 8957  8960  8963  8965     9 
 8957  8960  8963  8966     9 
 8961  8960  8963  8964     9 
 8961  8960  8963  8965     9 
 8961  8960  8963  8966     9 
 8962  8960  8963  8964     9 
 8962  8960  8963  8965     9 
 8962  8960  8963  8966     9 
 8960  8963  8966  8967     9 
 8960  8963  8966  8968     9 
 8960  8963  8966  8969     9 
 8964  8963  8966  8967     9 
 8964  8963  8966  8968     9 
 8964  8963  8966  8969     9 
 8965  8963  8966  8967     9 
 8965  8963  8966  8968     9 
 8965  8963  8966  8969     9 
 8963  8966  8969  8970     9 
 8963  8966  8969  8971     9 
 8963  8966  8969  8972     9 
 8967  8966  8969  8970     9 
 8967  8966  8969  8971     9 
 8967  8966  8969  8972     9 
 8968  8966  8969  8970     9 
 8968  8966  8969  8971     9 
 8968  8966  8969  8972     9 
 8966  8969  8972  8973     9 
 8966  8969  8972  8974     9 
 8966  8969  8972  8975     9 
 8970  8969  8972  8973     9 
 8970  8969  8972  8974     9 
 8970  8969  8972  8975     9 
 8971  8969  8972  8973     9 
 8971  8969  8972  8974     9 
 8971  8969  8972  8975     9 
 8969  8972  8975  8976     9 
 8969  8972  8975  8977     9 
 8969  8972  8975  8978     9 
 8973  8972  8975  8976     9 
 8973  8972  8975  8977     9 
 8973  8972  8975  8978     9 
 8974  8972  8975  8976     9 
 8974  8972  8975  8977     9 
 8974  8972  8975  8978     9 
 8983  8979  8980  8981     9 
 8983  8979  8980  8982     9 
 8983  8979  8980  8995     9 
 8987  8979  8980  8981     9 
 8987  8979  8980  8982     9 
 8987  8979  8980  8995     9 
 8991  8979  8980  8981     9 
 8991  8979  8980  8982     9 
 8991  8979  8980  8995     9 
 8980  8979  8983  8984     9 
 8980  8979  8983  8985     9 
 8980  8979  8983  8986     9 
 8987  8979  8983  8984     9 
 8987  8979  8983  8985     9 
 8987  8979  8983  8986     9 
 8991  8979  8983  8984     9 
 8991  8979  8983  8985     9 
 8991  8979  8983  8986     9 
 8980  8979  8987  8988     9 
 8980  8979  8987  8989     9 
 8980  8979  8987  8990     9 
 8983  8979  8987  8988     9 
 8983  8979  8987  8989     9 
 8983  8979  8987  8990     9 
 8991  8979  8987  8988     9 
 8991  8979  8987  8989     9 
 8991  8979  8987  8990     9 
 8980  8979  8991  8992     9 
 8980  8979  8991  8993     9 
 8980  8979  8991  8994     9 
 8983  8979  8991  8992     9 
 8983  8979  8991  8993     9 
 8983  8979  8991  8994     9 
 8987  8979  8991  8992     9 
 8987  8979  8991  8993     9 
 8987  8979  8991  8994     9 
 8979  8980  8995  8996     9 
 8979  8980  8995  8997     9 
 8979  8980  8995  9001     9 
 8981  8980  8995  8996     9 
 8981  8980  8995  8997     9 
 8981  8980  8995  9001     9 
 8982  8980  8995  8996     9 
 8982  8980  8995  8997     9 
 8982  8980  8995  9001     9 
 8980  8995  9001  8998     9 
 8996  8995  9001  8998     9 
 8997  8995  9001  8998     9 
 8999  8998  9001  8995     9 
 9000  8998  9001  8995     9 
 9002  8998  9001  8995     9 
 8999  8998  9002  9003     9 
 9000  8998  9002  9003     9 
 9001  8998  9002  9003     9 
 8998  9002  9003  9004     9 
 8998  9002  9003  9005     9 
 8998  9002  9003  9006     9 
 9002  9003  9006  9007     9 
 9002  9003  9006  9008     9 
 9002  9003  9006  9014     9 
 9004  9003  9006  9007     9 
 9004  9003  9006  9008     9 
 9004  9003  9006  9014     9 
 9005  9003  9006  9007     9 
 9005  9003  9006  9008     9 
 9005  9003  9006  9014     9 
 9003  9006  9008  9009     9 
 9007  9006  9008  9009     9 
 9014  9006  9008  9009     9 
 9003  9006  9014  9015     9 
 9003  9006  9014  9016     9 
 9003  9006  9014  9017     9 
 9007  9006  9014  9015     9 
 9007  9006  9014  9016     9 
 9007  9006  9014  9017     9 
 9008  9006  9014  9015     9 
 9008  9006  9014  9016     9 
 9008  9006  9014  9017     9 
 9006  9008  9009  9010     9 
 9006  9008  9009  9011     9 
 9008  9009  9011  9012     9 
 9008  9009  9011  9013     9 
 9008  9009  9011  9023     9 
 9010  9009  9011  9012     9 
 9010  9009  9011  9013     9 
 9010  9009  9011  9023     9 
 9009  9011  9023  9024     9 
 9009  9011  9023  9025     9 
 9009  9011  9023  9026     9 
 9012  9011  9023  9024     9 
 9012  9011  9023  9025     9 
 9012  9011  9023  9026     9 
 9013  9011  9023  9024     9 
 9013  9011  9023  9025     9 
 9013  9011  9023  9026     9 
 9006  9014  9017  9018     9 
 9015  9014  9017  9018     9 
 9016  9014  9017  9018     9 
 9014  9017  9018  9019     9 
 9014  9017  9018  9020     9 
 9017  9018  9020  9021     9 
 9017  9018  9020  9022     9 
 9017  9018  9020  9070     9 
 9019  9018  9020  9021     9 
 9019  9018  9020  9022     9 
 9019  9018  9020  9070     9 
 9018  9020  9070  9071     9 
 9018  9020  9070  9072     9 
 9018  9020  9070  9073     9 
 9021  9020  9070  9071     9 
 9021  9020  9070  9072     9 
 9021  9020  9070  9073     9 
 9022  9020  9070  9071     9 
 9022  9020  9070  9072     9 
 9022  9020  9070  9073     9 
 9011  9023  9026  9027     9 
 9011  9023  9026  9028     9 
 9011  9023  9026  9029     9 
 9024  9023  9026  9027     9 
 9024  9023  9026  9028     9 
 9024  9023  9026  9029     9 
 9025  9023  9026  9027     9 
 9025  9023  9026  9028     9 
 9025  9023  9026  9029     9 
 9023  9026  9029  9030     9 
 9023  9026  9029  9031     9 
 9023  9026  9029  9032     9 
 9027  9026  9029  9030     9 
 9027  9026  9029  9031     9 
 9027  9026  9029  9032     9 
 9028  9026  9029  9030     9 
 9028  9026  9029  9031     9 
 9028  9026  9029  9032     9 
 9026  9029  9032  9033     9 
 9026  9029  9032  9034     9 
 9026  9029  9032  9035     9 
 9030  9029  9032  9033     9 
 9030  9029  9032  9034     9 
 9030  9029  9032  9035     9 
 9031  9029  9032  9033     9 
 9031  9029  9032  9034     9 
 9031  9029  9032  9035     9 
 9029  9032  9035  9036     9 
 9029  9032  9035  9037     9 
 9029  9032  9035  9038     9 
 9033  9032  9035  9036     9 
 9033  9032  9035  9037     9 
 9033  9032  9035  9038     9 
 9034  9032  9035  9036     9 
 9034  9032  9035  9037     9 
 9034  9032  9035  9038     9 
 9032  9035  9038  9039     9 
 9032  9035  9038  9040     9 
 9032  9035  9038  9041     9 
 9036  9035  9038  9039     9 
 9036  9035  9038  9040     9 
 9036  9035  9038  9041     9 
 9037  9035  9038  9039     9 
 9037  9035  9038  9040     9 
 9037  9035  9038  9041     9 
 9035  9038  9041  9042     9 
 9035  9038  9041  9043     9 
 9039  9038  9041  9042     9 
 9039  9038  9041  9043     9 
 9040  9038  9041  9042     9 
 9040  9038  9041  9043     9 
 9038  9041  9043  9044     9 
 9038  9041  9043  9045     9 
 9042  9041  9043  9044     9 
 9042  9041  9043  9045     9 
 9041  9043  9045  9046     9 
 9041  9043  9045  9047     9 
 9041  9043  9045  9048     9 
 9044  9043  9045  9046     9 
 9044  9043  9045  9047     9 
 9044  9043  9045  9048     9 
 9043  9045  9048  9049     9 
 9043  9045  9048  9050     9 
 9043  9045  9048  9051     9 
 9046  9045  9048  9049     9 
 9046  9045  9048  9050     9 
 9046  9045  9048  9051     9 
 9047  9045  9048  9049     9 
 9047  9045  9048  9050     9 
 9047  9045  9048  9051     9 
 9045  9048  9051  9052     9 
 9045  9048  9051  9053     9 
 9045  9048  9051  9054     9 
 9049  9048  9051  9052     9 
 9049  9048  9051  9053     9 
 9049  9048  9051  9054     9 
 9050  9048  9051  9052     9 
 9050  9048  9051  9053     9 
 9050  9048  9051  9054     9 
 9048  9051  9054  9055     9 
 9048  9051  9054  9056     9 
 9048  9051  9054  9057     9 
 9052  9051  9054  9055     9 
 9052  9051  9054  9056     9 
 9052  9051  9054  9057     9 
 9053  9051  9054  9055     9 
 9053  9051  9054  9056     9 
 9053  9051  9054  9057     9 
 9051  9054  9057  9058     9 
 9051  9054  9057  9059     9 
 9051  9054  9057  9060     9 
 9055  9054  9057  9058     9 
 9055  9054  9057  9059     9 
 9055  9054  9057  9060     9 
 9056  9054  9057  9058     9 
 9056  9054  9057  9059     9 
 9056  9054  9057  9060     9 
 9054  9057  9060  9061     9 
 9054  9057  9060  9062     9 
 9054  9057  9060  9063     9 
 9058  9057  9060  9061     9 
 9058  9057  9060  9062     9 
 9058  9057  9060  9063     9 
 9059  9057  9060  9061     9 
 9059  9057  9060  9062     9 
 9059  9057  9060  9063     9 
 9057  9060  9063  9064     9 
 9057  9060  9063  9065     9 
 9057  9060  9063  9066     9 
 9061  9060  9063  9064     9 
 9061  9060  9063  9065     9 
 9061  9060  9063  9066     9 
 9062  9060  9063  9064     9 
 9062  9060  9063  9065     9 
 9062  9060  9063  9066     9 
 9060  9063  9066  9067     9 
 9060  9063  9066  9068     9 
 9060  9063  9066  9069     9 
 9064  9063  9066  9067     9 
 9064  9063  9066  9068     9 
 9064  9063  9066  9069     9 
 9065  9063  9066  9067     9 
 9065  9063  9066  9068     9 
 9065  9063  9066  9069     9 
 9020  9070  9073  9074     9 
 9020  9070  9073  9075     9 
 9020  9070  9073  9076     9 
 9071  9070  9073  9074     9 
 9071  9070  9073  9075     9 
 9071  9070  9073  9076     9 
 9072  9070  9073  9074     9 
 9072  9070  9073  9075     9 
 9072  9070  9073  9076     9 
 9070  9073  9076  9077     9 
 9070  9073  9076  9078     9 
 9070  9073  9076  9079     9 
 9074  9073  9076  9077     9 
 9074  9073  9076  9078     9 
 9074  9073  9076  9079     9 
 9075  9073  9076  9077     9 
 9075  9073  9076  9078     9 
 9075  9073  9076  9079     9 
 9073  9076  9079  9080     9 
 9073  9076  9079  9081     9 
 9073  9076  9079  9082     9 
 9077  9076  9079  9080     9 
 9077  9076  9079  9081     9 
 9077  9076  9079  9082     9 
 9078  9076  9079  9080     9 
 9078  9076  9079  9081     9 
 9078  9076  9079  9082     9 
 9076  9079  9082  9083     9 
 9076  9079  9082  9084     9 
 9076  9079  9082  9085     9 
 9080  9079  9082  9083     9 
 9080  9079  9082  9084     9 
 9080  9079  9082  9085     9 
 9081  9079  9082  9083     9 
 9081  9079  9082  9084     9 
 9081  9079  9082  9085     9 
 9079  9082  9085  9086     9 
 9079  9082  9085  9087     9 
 9079  9082  9085  9088     9 
 9083  9082  9085  9086     9 
 9083  9082  9085  9087     9 
 9083  9082  9085  9088     9 
 9084  9082  9085  9086     9 
 9084  9082  9085  9087     9 
 9084  9082  9085  9088     9 
 9082  9085  9088  9089     9 
 9082  9085  9088  9090     9 
 9082  9085  9088  9091     9 
 9086  9085  9088  9089     9 
 9086  9085  9088  9090     9 
 9086  9085  9088  9091     9 
 9087  9085  9088  9089     9 
 9087  9085  9088  9090     9 
 9087  9085  9088  9091     9 
 9085  9088  9091  9092     9 
 9085  9088  9091  9093     9 
 9085  9088  9091  9094     9 
 9089  9088  9091  9092     9 
 9089  9088  9091  9093     9 
 9089  9088  9091  9094     9 
 9090  9088  9091  9092     9 
 9090  9088  9091  9093     9 
 9090  9088  9091  9094     9 
 9088  9091  9094  9095     9 
 9088  9091  9094  9096     9 
 9088  9091  9094  9097     9 
 9092  9091  9094  9095     9 
 9092  9091  9094  9096     9 
 9092  9091  9094  9097     9 
 9093  9091  9094  9095     9 
 9093  9091  9094  9096     9 
 9093  9091  9094  9097     9 
 9091  9094  9097  9098     9 
 9091  9094  9097  9099     9 
 9091  9094  9097  9100     9 
 9095  9094  9097  9098     9 
 9095  9094  9097  9099     9 
 9095  9094  9097  9100     9 
 9096  9094  9097  9098     9 
 9096  9094  9097  9099     9 
 9096  9094  9097  9100     9 
 9094  9097  9100  9101     9 
 9094  9097  9100  9102     9 
 9094  9097  9100  9103     9 
 9098  9097  9100  9101     9 
 9098  9097  9100  9102     9 
 9098  9097  9100  9103     9 
 9099  9097  9100  9101     9 
 9099  9097  9100  9102     9 
 9099  9097  9100  9103     9 
 9097  9100  9103  9104     9 
 9097  9100  9103  9105     9 
 9097  9100  9103  9106     9 
 9101  9100  9103  9104     9 
 9101  9100  9103  9105     9 
 9101  9100  9103  9106     9 
 9102  9100  9103  9104     9 
 9102  9100  9103  9105     9 
 9102  9100  9103  9106     9 
 9100  9103  9106  9107     9 
 9100  9103  9106  9108     9 
 9100  9103  9106  9109     9 
 9104  9103  9106  9107     9 
 9104  9103  9106  9108     9 
 9104  9103  9106  9109     9 
 9105  9103  9106  9107     9 
 9105  9103  9106  9108     9 
 9105  9103  9106  9109     9 
 9103  9106  9109  9110     9 
 9103  9106  9109  9111     9 
 9103  9106  9109  9112     9 
 9107  9106  9109  9110     9 
 9107  9106  9109  9111     9 
 9107  9106  9109  9112     9 
 9108  9106  9109  9110     9 
 9108  9106  9109  9111     9 
 9108  9106  9109  9112     9 
 9117  9113  9114  9115     9 
 9117  9113  9114  9116     9 
 9117  9113  9114  9129     9 
 9121  9113  9114  9115     9 
 9121  9113  9114  9116     9 
 9121  9113  9114  9129     9 
 9125  9113  9114  9115     9 
 9125  9113  9114  9116     9 
 9125  9113  9114  9129     9 
 9114  9113  9117  9118     9 
 9114  9113  9117  9119     9 
 9114  9113  9117  9120     9 
 9121  9113  9117  9118     9 
 9121  9113  9117  9119     9 
 9121  9113  9117  9120     9 
 9125  9113  9117  9118     9 
 9125  9113  9117  9119     9 
 9125  9113  9117  9120     9 
 9114  9113  9121  9122     9 
 9114  9113  9121  9123     9 
 9114  9113  9121  9124     9 
 9117  9113  9121  9122     9 
 9117  9113  9121  9123     9 
 9117  9113  9121  9124     9 
 9125  9113  9121  9122     9 
 9125  9113  9121  9123     9 
 9125  9113  9121  9124     9 
 9114  9113  9125  9126     9 
 9114  9113  9125  9127     9 
 9114  9113  9125  9128     9 
 9117  9113  9125  9126     9 
 9117  9113  9125  9127     9 
 9117  9113  9125  9128     9 
 9121  9113  9125  9126     9 
 9121  9113  9125  9127     9 
 9121  9113  9125  9128     9 
 9113  9114  9129  9130     9 
 9113  9114  9129  9131     9 
 9113  9114  9129  9135     9 
 9115  9114  9129  9130     9 
 9115  9114  9129  9131     9 
 9115  9114  9129  9135     9 
 9116  9114  9129  9130     9 
 9116  9114  9129  9131     9 
 9116  9114  9129  9135     9 
 9114  9129  9135  9132     9 
 9130  9129  9135  9132     9 
 9131  9129  9135  9132     9 
 9133  9132  9135  9129     9 
 9134  9132  9135  9129     9 
 9136  9132  9135  9129     9 
 9133  9132  9136  9137     9 
 9134  9132  9136  9137     9 
 9135  9132  9136  9137     9 
 9132  9136  9137  9138     9 
 9132  9136  9137  9139     9 
 9132  9136  9137  9140     9 
 9136  9137  9140  9141     9 
 9136  9137  9140  9142     9 
 9136  9137  9140  9148     9 
 9138  9137  9140  9141     9 
 9138  9137  9140  9142     9 
 9138  9137  9140  9148     9 
 9139  9137  9140  9141     9 
 9139  9137  9140  9142     9 
 9139  9137  9140  9148     9 
 9137  9140  9142  9143     9 
 9141  9140  9142  9143     9 
 9148  9140  9142  9143     9 
 9137  9140  9148  9149     9 
 9137  9140  9148  9150     9 
 9137  9140  9148  9151     9 
 9141  9140  9148  9149     9 
 9141  9140  9148  9150     9 
 9141  9140  9148  9151     9 
 9142  9140  9148  9149     9 
 9142  9140  9148  9150     9 
 9142  9140  9148  9151     9 
 9140  9142  9143  9144     9 
 9140  9142  9143  9145     9 
 9142  9143  9145  9146     9 
 9142  9143  9145  9147     9 
 9142  9143  9145  9157     9 
 9144  9143  9145  9146     9 
 9144  9143  9145  9147     9 
 9144  9143  9145  9157     9 
 9143  9145  9157  9158     9 
 9143  9145  9157  9159     9 
 9143  9145  9157  9160     9 
 9146  9145  9157  9158     9 
 9146  9145  9157  9159     9 
 9146  9145  9157  9160     9 
 9147  9145  9157  9158     9 
 9147  9145  9157  9159     9 
 9147  9145  9157  9160     9 
 9140  9148  9151  9152     9 
 9149  9148  9151  9152     9 
 9150  9148  9151  9152     9 
 9148  9151  9152  9153     9 
 9148  9151  9152  9154     9 
 9151  9152  9154  9155     9 
 9151  9152  9154  9156     9 
 9151  9152  9154  9204     9 
 9153  9152  9154  9155     9 
 9153  9152  9154  9156     9 
 9153  9152  9154  9204     9 
 9152  9154  9204  9205     9 
 9152  9154  9204  9206     9 
 9152  9154  9204  9207     9 
 9155  9154  9204  9205     9 
 9155  9154  9204  9206     9 
 9155  9154  9204  9207     9 
 9156  9154  9204  9205     9 
 9156  9154  9204  9206     9 
 9156  9154  9204  9207     9 
 9145  9157  9160  9161     9 
 9145  9157  9160  9162     9 
 9145  9157  9160  9163     9 
 9158  9157  9160  9161     9 
 9158  9157  9160  9162     9 
 9158  9157  9160  9163     9 
 9159  9157  9160  9161     9 
 9159  9157  9160  9162     9 
 9159  9157  9160  9163     9 
 9157  9160  9163  9164     9 
 9157  9160  9163  9165     9 
 9157  9160  9163  9166     9 
 9161  9160  9163  9164     9 
 9161  9160  9163  9165     9 
 9161  9160  9163  9166     9 
 9162  9160  9163  9164     9 
 9162  9160  9163  9165     9 
 9162  9160  9163  9166     9 
 9160  9163  9166  9167     9 
 9160  9163  9166  9168     9 
 9160  9163  9166  9169     9 
 9164  9163  9166  9167     9 
 9164  9163  9166  9168     9 
 9164  9163  9166  9169     9 
 9165  9163  9166  9167     9 
 9165  9163  9166  9168     9 
 9165  9163  9166  9169     9 
 9163  9166  9169  9170     9 
 9163  9166  9169  9171     9 
 9163  9166  9169  9172     9 
 9167  9166  9169  9170     9 
 9167  9166  9169  9171     9 
 9167  9166  9169  9172     9 
 9168  9166  9169  9170     9 
 9168  9166  9169  9171     9 
 9168  9166  9169  9172     9 
 9166  9169  9172  9173     9 
 9166  9169  9172  9174     9 
 9166  9169  9172  9175     9 
 9170  9169  9172  9173     9 
 9170  9169  9172  9174     9 
 9170  9169  9172  9175     9 
 9171  9169  9172  9173     9 
 9171  9169  9172  9174     9 
 9171  9169  9172  9175     9 
 9169  9172  9175  9176     9 
 9169  9172  9175  9177     9 
 9173  9172  9175  9176     9 
 9173  9172  9175  9177     9 
 9174  9172  9175  9176     9 
 9174  9172  9175  9177     9 
 9172  9175  9177  9178     9 
 9172  9175  9177  9179     9 
 9176  9175  9177  9178     9 
 9176  9175  9177  9179     9 
 9175  9177  9179  9180     9 
 9175  9177  9179  9181     9 
 9175  9177  9179  9182     9 
 9178  9177  9179  9180     9 
 9178  9177  9179  9181     9 
 9178  9177  9179  9182     9 
 9177  9179  9182  9183     9 
 9177  9179  9182  9184     9 
 9177  9179  9182  9185     9 
 9180  9179  9182  9183     9 
 9180  9179  9182  9184     9 
 9180  9179  9182  9185     9 
 9181  9179  9182  9183     9 
 9181  9179  9182  9184     9 
 9181  9179  9182  9185     9 
 9179  9182  9185  9186     9 
 9179  9182  9185  9187     9 
 9179  9182  9185  9188     9 
 9183  9182  9185  9186     9 
 9183  9182  9185  9187     9 
 9183  9182  9185  9188     9 
 9184  9182  9185  9186     9 
 9184  9182  9185  9187     9 
 9184  9182  9185  9188     9 
 9182  9185  9188  9189     9 
 9182  9185  9188  9190     9 
 9182  9185  9188  9191     9 
 9186  9185  9188  9189     9 
 9186  9185  9188  9190     9 
 9186  9185  9188  9191     9 
 9187  9185  9188  9189     9 
 9187  9185  9188  9190     9 
 9187  9185  9188  9191     9 
 9185  9188  9191  9192     9 
 9185  9188  9191  9193     9 
 9185  9188  9191  9194     9 
 9189  9188  9191  9192     9 
 9189  9188  9191  9193     9 
 9189  9188  9191  9194     9 
 9190  9188  9191  9192     9 
 9190  9188  9191  9193     9 
 9190  9188  9191  9194     9 
 9188  9191  9194  9195     9 
 9188  9191  9194  9196     9 
 9188  9191  9194  9197     9 
 9192  9191  9194  9195     9 
 9192  9191  9194  9196     9 
 9192  9191  9194  9197     9 
 9193  9191  9194  9195     9 
 9193  9191  9194  9196     9 
 9193  9191  9194  9197     9 
 9191  9194  9197  9198     9 
 9191  9194  9197  9199     9 
 9191  9194  9197  9200     9 
 9195  9194  9197  9198     9 
 9195  9194  9197  9199     9 
 9195  9194  9197  9200     9 
 9196  9194  9197  9198     9 
 9196  9194  9197  9199     9 
 9196  9194  9197  9200     9 
 9194  9197  9200  9201     9 
 9194  9197  9200  9202     9 
 9194  9197  9200  9203     9 
 9198  9197  9200  9201     9 
 9198  9197  9200  9202     9 
 9198  9197  9200  9203     9 
 9199  9197  9200  9201     9 
 9199  9197  9200  9202     9 
 9199  9197  9200  9203     9 
 9154  9204  9207  9208     9 
 9154  9204  9207  9209     9 
 9154  9204  9207  9210     9 
 9205  9204  9207  9208     9 
 9205  9204  9207  9209     9 
 9205  9204  9207  9210     9 
 9206  9204  9207  9208     9 
 9206  9204  9207  9209     9 
 9206  9204  9207  9210     9 
 9204  9207  9210  9211     9 
 9204  9207  9210  9212     9 
 9204  9207  9210  9213     9 
 9208  9207  9210  9211     9 
 9208  9207  9210  9212     9 
 9208  9207  9210  9213     9 
 9209  9207  9210  9211     9 
 9209  9207  9210  9212     9 
 9209  9207  9210  9213     9 
 9207  9210  9213  9214     9 
 9207  9210  9213  9215     9 
 9207  9210  9213  9216     9 
 9211  9210  9213  9214     9 
 9211  9210  9213  9215     9 
 9211  9210  9213  9216     9 
 9212  9210  9213  9214     9 
 9212  9210  9213  9215     9 
 9212  9210  9213  9216     9 
 9210  9213  9216  9217     9 
 9210  9213  9216  9218     9 
 9210  9213  9216  9219     9 
 9214  9213  9216  9217     9 
 9214  9213  9216  9218     9 
 9214  9213  9216  9219     9 
 9215  9213  9216  9217     9 
 9215  9213  9216  9218     9 
 9215  9213  9216  9219     9 
 9213  9216  9219  9220     9 
 9213  9216  9219  9221     9 
 9213  9216  9219  9222     9 
 9217  9216  9219  9220     9 
 9217  9216  9219  9221     9 
 9217  9216  9219  9222     9 
 9218  9216  9219  9220     9 
 9218  9216  9219  9221     9 
 9218  9216  9219  9222     9 
 9216  9219  9222  9223     9 
 9216  9219  9222  9224     9 
 9216  9219  9222  9225     9 
 9220  9219  9222  9223     9 
 9220  9219  9222  9224     9 
 9220  9219  9222  9225     9 
 9221  9219  9222  9223     9 
 9221  9219  9222  9224     9 
 9221  9219  9222  9225     9 
 9219  9222  9225  9226     9 
 9219  9222  9225  9227     9 
 9219  9222  9225  9228     9 
 9223  9222  9225  9226     9 
 9223  9222  9225  9227     9 
 9223  9222  9225  9228     9 
 9224  9222  9225  9226     9 
 9224  9222  9225  9227     9 
 9224  9222  9225  9228     9 
 9222  9225  9228  9229     9 
 9222  9225  9228  9230     9 
 9222  9225  9228  9231     9 
 9226  9225  9228  9229     9 
 9226  9225  9228  9230     9 
 9226  9225  9228  9231     9 
 9227  9225  9228  9229     9 
 9227  9225  9228  9230     9 
 9227  9225  9228  9231     9 
 9225  9228  9231  9232     9 
 9225  9228  9231  9233     9 
 9225  9228  9231  9234     9 
 9229  9228  9231  9232     9 
 9229  9228  9231  9233     9 
 9229  9228  9231  9234     9 
 9230  9228  9231  9232     9 
 9230  9228  9231  9233     9 
 9230  9228  9231  9234     9 
 9228  9231  9234  9235     9 
 9228  9231  9234  9236     9 
 9228  9231  9234  9237     9 
 9232  9231  9234  9235     9 
 9232  9231  9234  9236     9 
 9232  9231  9234  9237     9 
 9233  9231  9234  9235     9 
 9233  9231  9234  9236     9 
 9233  9231  9234  9237     9 
 9231  9234  9237  9238     9 
 9231  9234  9237  9239     9 
 9231  9234  9237  9240     9 
 9235  9234  9237  9238     9 
 9235  9234  9237  9239     9 
 9235  9234  9237  9240     9 
 9236  9234  9237  9238     9 
 9236  9234  9237  9239     9 
 9236  9234  9237  9240     9 
 9234  9237  9240  9241     9 
 9234  9237  9240  9242     9 
 9234  9237  9240  9243     9 
 9238  9237  9240  9241     9 
 9238  9237  9240  9242     9 
 9238  9237  9240  9243     9 
 9239  9237  9240  9241     9 
 9239  9237  9240  9242     9 
 9239  9237  9240  9243     9 
 9237  9240  9243  9244     9 
 9237  9240  9243  9245     9 
 9237  9240  9243  9246     9 
 9241  9240  9243  9244     9 
 9241  9240  9243  9245     9 
 9241  9240  9243  9246     9 
 9242  9240  9243  9244     9 
 9242  9240  9243  9245     9 
 9242  9240  9243  9246     9 
 9251  9247  9248  9249     9 
 9251  9247  9248  9250     9 
 9251  9247  9248  9263     9 
 9255  9247  9248  9249     9 
 9255  9247  9248  9250     9 
 9255  9247  9248  9263     9 
 9259  9247  9248  9249     9 
 9259  9247  9248  9250     9 
 9259  9247  9248  9263     9 
 9248  9247  9251  9252     9 
 9248  9247  9251  9253     9 
 9248  9247  9251  9254     9 
 9255  9247  9251  9252     9 
 9255  9247  9251  9253     9 
 9255  9247  9251  9254     9 
 9259  9247  9251  9252     9 
 9259  9247  9251  9253     9 
 9259  9247  9251  9254     9 
 9248  9247  9255  9256     9 
 9248  9247  9255  9257     9 
 9248  9247  9255  9258     9 
 9251  9247  9255  9256     9 
 9251  9247  9255  9257     9 
 9251  9247  9255  9258     9 
 9259  9247  9255  9256     9 
 9259  9247  9255  9257     9 
 9259  9247  9255  9258     9 
 9248  9247  9259  9260     9 
 9248  9247  9259  9261     9 
 9248  9247  9259  9262     9 
 9251  9247  9259  9260     9 
 9251  9247  9259  9261     9 
 9251  9247  9259  9262     9 
 9255  9247  9259  9260     9 
 9255  9247  9259  9261     9 
 9255  9247  9259  9262     9 
 9247  9248  9263  9264     9 
 9247  9248  9263  9265     9 
 9247  9248  9263  9269     9 
 9249  9248  9263  9264     9 
 9249  9248  9263  9265     9 
 9249  9248  9263  9269     9 
 9250  9248  9263  9264     9 
 9250  9248  9263  9265     9 
 9250  9248  9263  9269     9 
 9248  9263  9269  9266     9 
 9264  9263  9269  9266     9 
 9265  9263  9269  9266     9 
 9267  9266  9269  9263     9 
 9268  9266  9269  9263     9 
 9270  9266  9269  9263     9 
 9267  9266  9270  9271     9 
 9268  9266  9270  9271     9 
 9269  9266  9270  9271     9 
 9266  9270  9271  9272     9 
 9266  9270  9271  9273     9 
 9266  9270  9271  9274     9 
 9270  9271  9274  9275     9 
 9270  9271  9274  9276     9 
 9270  9271  9274  9282     9 
 9272  9271  9274  9275     9 
 9272  9271  9274  9276     9 
 9272  9271  9274  9282     9 
 9273  9271  9274  9275     9 
 9273  9271  9274  9276     9 
 9273  9271  9274  9282     9 
 9271  9274  9276  9277     9 
 9275  9274  9276  9277     9 
 9282  9274  9276  9277     9 
 9271  9274  9282  9283     9 
 9271  9274  9282  9284     9 
 9271  9274  9282  9285     9 
 9275  9274  9282  9283     9 
 9275  9274  9282  9284     9 
 9275  9274  9282  9285     9 
 9276  9274  9282  9283     9 
 9276  9274  9282  9284     9 
 9276  9274  9282  9285     9 
 9274  9276  9277  9278     9 
 9274  9276  9277  9279     9 
 9276  9277  9279  9280     9 
 9276  9277  9279  9281     9 
 9276  9277  9279  9291     9 
 9278  9277  9279  9280     9 
 9278  9277  9279  9281     9 
 9278  9277  9279  9291     9 
 9277  9279  9291  9292     9 
 9277  9279  9291  9293     9 
 9277  9279  9291  9294     9 
 9280  9279  9291  9292     9 
 9280  9279  9291  9293     9 
 9280  9279  9291  9294     9 
 9281  9279  9291  9292     9 
 9281  9279  9291  9293     9 
 9281  9279  9291  9294     9 
 9274  9282  9285  9286     9 
 9283  9282  9285  9286     9 
 9284  9282  9285  9286     9 
 9282  9285  9286  9287     9 
 9282  9285  9286  9288     9 
 9285  9286  9288  9289     9 
 9285  9286  9288  9290     9 
 9285  9286  9288  9338     9 
 9287  9286  9288  9289     9 
 9287  9286  9288  9290     9 
 9287  9286  9288  9338     9 
 9286  9288  9338  9339     9 
 9286  9288  9338  9340     9 
 9286  9288  9338  9341     9 
 9289  9288  9338  9339     9 
 9289  9288  9338  9340     9 
 9289  9288  9338  9341     9 
 9290  9288  9338  9339     9 
 9290  9288  9338  9340     9 
 9290  9288  9338  9341     9 
 9279  9291  9294  9295     9 
 9279  9291  9294  9296     9 
 9279  9291  9294  9297     9 
 9292  9291  9294  9295     9 
 9292  9291  9294  9296     9 
 9292  9291  9294  9297     9 
 9293  9291  9294  9295     9 
 9293  9291  9294  9296     9 
 9293  9291  9294  9297     9 
 9291  9294  9297  9298     9 
 9291  9294  9297  9299     9 
 9291  9294  9297  9300     9 
 9295  9294  9297  9298     9 
 9295  9294  9297  9299     9 
 9295  9294  9297  9300     9 
 9296  9294  9297  9298     9 
 9296  9294  9297  9299     9 
 9296  9294  9297  9300     9 
 9294  9297  9300  9301     9 
 9294  9297  9300  9302     9 
 9294  9297  9300  9303     9 
 9298  9297  9300  9301     9 
 9298  9297  9300  9302     9 
 9298  9297  9300  9303     9 
 9299  9297  9300  9301     9 
 9299  9297  9300  9302     9 
 9299  9297  9300  9303     9 
 9297  9300  9303  9304     9 
 9297  9300  9303  9305     9 
 9297  9300  9303  9306     9 
 9301  9300  9303  9304     9 
 9301  9300  9303  9305     9 
 9301  9300  9303  9306     9 
 9302  9300  9303  9304     9 
 9302  9300  9303  9305     9 
 9302  9300  9303  9306     9 
 9300  9303  9306  9307     9 
 9300  9303  9306  9308     9 
 9300  9303  9306  9309     9 
 9304  9303  9306  9307     9 
 9304  9303  9306  9308     9 
 9304  9303  9306  9309     9 
 9305  9303  9306  9307     9 
 9305  9303  9306  9308     9 
 9305  9303  9306  9309     9 
 9303  9306  9309  9310     9 
 9303  9306  9309  9311     9 
 9307  9306  9309  9310     9 
 9307  9306  9309  9311     9 
 9308  9306  9309  9310     9 
 9308  9306  9309  9311     9 
 9306  9309  9311  9312     9 
 9306  9309  9311  9313     9 
 9310  9309  9311  9312     9 
 9310  9309  9311  9313     9 
 9309  9311  9313  9314     9 
 9309  9311  9313  9315     9 
 9309  9311  9313  9316     9 
 9312  9311  9313  9314     9 
 9312  9311  9313  9315     9 
 9312  9311  9313  9316     9 
 9311  9313  9316  9317     9 
 9311  9313  9316  9318     9 
 9311  9313  9316  9319     9 
 9314  9313  9316  9317     9 
 9314  9313  9316  9318     9 
 9314  9313  9316  9319     9 
 9315  9313  9316  9317     9 
 9315  9313  9316  9318     9 
 9315  9313  9316  9319     9 
 9313  9316  9319  9320     9 
 9313  9316  9319  9321     9 
 9313  9316  9319  9322     9 
 9317  9316  9319  9320     9 
 9317  9316  9319  9321     9 
 9317  9316  9319  9322     9 
 9318  9316  9319  9320     9 
 9318  9316  9319  9321     9 
 9318  9316  9319  9322     9 
 9316  9319  9322  9323     9 
 9316  9319  9322  9324     9 
 9316  9319  9322  9325     9 
 9320  9319  9322  9323     9 
 9320  9319  9322  9324     9 
 9320  9319  9322  9325     9 
 9321  9319  9322  9323     9 
 9321  9319  9322  9324     9 
 9321  9319  9322  9325     9 
 9319  9322  9325  9326     9 
 9319  9322  9325  9327     9 
 9319  9322  9325  9328     9 
 9323  9322  9325  9326     9 
 9323  9322  9325  9327     9 
 9323  9322  9325  9328     9 
 9324  9322  9325  9326     9 
 9324  9322  9325  9327     9 
 9324  9322  9325  9328     9 
 9322  9325  9328  9329     9 
 9322  9325  9328  9330     9 
 9322  9325  9328  9331     9 
 9326  9325  9328  9329     9 
 9326  9325  9328  9330     9 
 9326  9325  9328  9331     9 
 9327  9325  9328  9329     9 
 9327  9325  9328  9330     9 
 9327  9325  9328  9331     9 
 9325  9328  9331  9332     9 
 9325  9328  9331  9333     9 
 9325  9328  9331  9334     9 
 9329  9328  9331  9332     9 
 9329  9328  9331  9333     9 
 9329  9328  9331  9334     9 
 9330  9328  9331  9332     9 
 9330  9328  9331  9333     9 
 9330  9328  9331  9334     9 
 9328  9331  9334  9335     9 
 9328  9331  9334  9336     9 
 9328  9331  9334  9337     9 
 9332  9331  9334  9335     9 
 9332  9331  9334  9336     9 
 9332  9331  9334  9337     9 
 9333  9331  9334  9335     9 
 9333  9331  9334  9336     9 
 9333  9331  9334  9337     9 
 9288  9338  9341  9342     9 
 9288  9338  9341  9343     9 
 9288  9338  9341  9344     9 
 9339  9338  9341  9342     9 
 9339  9338  9341  9343     9 
 9339  9338  9341  9344     9 
 9340  9338  9341  9342     9 
 9340  9338  9341  9343     9 
 9340  9338  9341  9344     9 
 9338  9341  9344  9345     9 
 9338  9341  9344  9346     9 
 9338  9341  9344  9347     9 
 9342  9341  9344  9345     9 
 9342  9341  9344  9346     9 
 9342  9341  9344  9347     9 
 9343  9341  9344  9345     9 
 9343  9341  9344  9346     9 
 9343  9341  9344  9347     9 
 9341  9344  9347  9348     9 
 9341  9344  9347  9349     9 
 9341  9344  9347  9350     9 
 9345  9344  9347  9348     9 
 9345  9344  9347  9349     9 
 9345  9344  9347  9350     9 
 9346  9344  9347  9348     9 
 9346  9344  9347  9349     9 
 9346  9344  9347  9350     9 
 9344  9347  9350  9351     9 
 9344  9347  9350  9352     9 
 9344  9347  9350  9353     9 
 9348  9347  9350  9351     9 
 9348  9347  9350  9352     9 
 9348  9347  9350  9353     9 
 9349  9347  9350  9351     9 
 9349  9347  9350  9352     9 
 9349  9347  9350  9353     9 
 9347  9350  9353  9354     9 
 9347  9350  9353  9355     9 
 9347  9350  9353  9356     9 
 9351  9350  9353  9354     9 
 9351  9350  9353  9355     9 
 9351  9350  9353  9356     9 
 9352  9350  9353  9354     9 
 9352  9350  9353  9355     9 
 9352  9350  9353  9356     9 
 9350  9353  9356  9357     9 
 9350  9353  9356  9358     9 
 9350  9353  9356  9359     9 
 9354  9353  9356  9357     9 
 9354  9353  9356  9358     9 
 9354  9353  9356  9359     9 
 9355  9353  9356  9357     9 
 9355  9353  9356  9358     9 
 9355  9353  9356  9359     9 
 9353  9356  9359  9360     9 
 9353  9356  9359  9361     9 
 9353  9356  9359  9362     9 
 9357  9356  9359  9360     9 
 9357  9356  9359  9361     9 
 9357  9356  9359  9362     9 
 9358  9356  9359  9360     9 
 9358  9356  9359  9361     9 
 9358  9356  9359  9362     9 
 9356  9359  9362  9363     9 
 9356  9359  9362  9364     9 
 9356  9359  9362  9365     9 
 9360  9359  9362  9363     9 
 9360  9359  9362  9364     9 
 9360  9359  9362  9365     9 
 9361  9359  9362  9363     9 
 9361  9359  9362  9364     9 
 9361  9359  9362  9365     9 
 9359  9362  9365  9366     9 
 9359  9362  9365  9367     9 
 9359  9362  9365  9368     9 
 9363  9362  9365  9366     9 
 9363  9362  9365  9367     9 
 9363  9362  9365  9368     9 
 9364  9362  9365  9366     9 
 9364  9362  9365  9367     9 
 9364  9362  9365  9368     9 
 9362  9365  9368  9369     9 
 9362  9365  9368  9370     9 
 9362  9365  9368  9371     9 
 9366  9365  9368  9369     9 
 9366  9365  9368  9370     9 
 9366  9365  9368  9371     9 
 9367  9365  9368  9369     9 
 9367  9365  9368  9370     9 
 9367  9365  9368  9371     9 
 9365  9368  9371  9372     9 
 9365  9368  9371  9373     9 
 9365  9368  9371  9374     9 
 9369  9368  9371  9372     9 
 9369  9368  9371  9373     9 
 9369  9368  9371  9374     9 
 9370  9368  9371  9372     9 
 9370  9368  9371  9373     9 
 9370  9368  9371  9374     9 
 9368  9371  9374  9375     9 
 9368  9371  9374  9376     9 
 9368  9371  9374  9377     9 
 9372  9371  9374  9375     9 
 9372  9371  9374  9376     9 
 9372  9371  9374  9377     9 
 9373  9371  9374  9375     9 
 9373  9371  9374  9376     9 
 9373  9371  9374  9377     9 
 9371  9374  9377  9378     9 
 9371  9374  9377  9379     9 
 9371  9374  9377  9380     9 
 9375  9374  9377  9378     9 
 9375  9374  9377  9379     9 
 9375  9374  9377  9380     9 
 9376  9374  9377  9378     9 
 9376  9374  9377  9379     9 
 9376  9374  9377  9380     9 
 9385  9381  9382  9383     9 
 9385  9381  9382  9384     9 
 9385  9381  9382  9397     9 
 9389  9381  9382  9383     9 
 9389  9381  9382  9384     9 
 9389  9381  9382  9397     9 
 9393  9381  9382  9383     9 
 9393  9381  9382  9384     9 
 9393  9381  9382  9397     9 
 9382  9381  9385  9386     9 
 9382  9381  9385  9387     9 
 9382  9381  9385  9388     9 
 9389  9381  9385  9386     9 
 9389  9381  9385  9387     9 
 9389  9381  9385  9388     9 
 9393  9381  9385  9386     9 
 9393  9381  9385  9387     9 
 9393  9381  9385  9388     9 
 9382  9381  9389  9390     9 
 9382  9381  9389  9391     9 
 9382  9381  9389  9392     9 
 9385  9381  9389  9390     9 
 9385  9381  9389  9391     9 
 9385  9381  9389  9392     9 
 9393  9381  9389  9390     9 
 9393  9381  9389  9391     9 
 9393  9381  9389  9392     9 
 9382  9381  9393  9394     9 
 9382  9381  9393  9395     9 
 9382  9381  9393  9396     9 
 9385  9381  9393  9394     9 
 9385  9381  9393  9395     9 
 9385  9381  9393  9396     9 
 9389  9381  9393  9394     9 
 9389  9381  9393  9395     9 
 9389  9381  9393  9396     9 
 9381  9382  9397  9398     9 
 9381  9382  9397  9399     9 
 9381  9382  9397  9403     9 
 9383  9382  9397  9398     9 
 9383  9382  9397  9399     9 
 9383  9382  9397  9403     9 
 9384  9382  9397  9398     9 
 9384  9382  9397  9399     9 
 9384  9382  9397  9403     9 
 9382  9397  9403  9400     9 
 9398  9397  9403  9400     9 
 9399  9397  9403  9400     9 
 9401  9400  9403  9397     9 
 9402  9400  9403  9397     9 
 9404  9400  9403  9397     9 
 9401  9400  9404  9405     9 
 9402  9400  9404  9405     9 
 9403  9400  9404  9405     9 
 9400  9404  9405  9406     9 
 9400  9404  9405  9407     9 
 9400  9404  9405  9408     9 
 9404  9405  9408  9409     9 
 9404  9405  9408  9410     9 
 9404  9405  9408  9416     9 
 9406  9405  9408  9409     9 
 9406  9405  9408  9410     9 
 9406  9405  9408  9416     9 
 9407  9405  9408  9409     9 
 9407  9405  9408  9410     9 
 9407  9405  9408  9416     9 
 9405  9408  9410  9411     9 
 9409  9408  9410  9411     9 
 9416  9408  9410  9411     9 
 9405  9408  9416  9417     9 
 9405  9408  9416  9418     9 
 9405  9408  9416  9419     9 
 9409  9408  9416  9417     9 
 9409  9408  9416  9418     9 
 9409  9408  9416  9419     9 
 9410  9408  9416  9417     9 
 9410  9408  9416  9418     9 
 9410  9408  9416  9419     9 
 9408  9410  9411  9412     9 
 9408  9410  9411  9413     9 
 9410  9411  9413  9414     9 
 9410  9411  9413  9415     9 
 9410  9411  9413  9425     9 
 9412  9411  9413  9414     9 
 9412  9411  9413  9415     9 
 9412  9411  9413  9425     9 
 9411  9413  9425  9426     9 
 9411  9413  9425  9427     9 
 9411  9413  9425  9428     9 
 9414  9413  9425  9426     9 
 9414  9413  9425  9427     9 
 9414  9413  9425  9428     9 
 9415  9413  9425  9426     9 
 9415  9413  9425  9427     9 
 9415  9413  9425  9428     9 
 9408  9416  9419  9420     9 
 9417  9416  9419  9420     9 
 9418  9416  9419  9420     9 
 9416  9419  9420  9421     9 
 9416  9419  9420  9422     9 
 9419  9420  9422  9423     9 
 9419  9420  9422  9424     9 
 9419  9420  9422  9472     9 
 9421  9420  9422  9423     9 
 9421  9420  9422  9424     9 
 9421  9420  9422  9472     9 
 9420  9422  9472  9473     9 
 9420  9422  9472  9474     9 
 9420  9422  9472  9475     9 
 9423  9422  9472  9473     9 
 9423  9422  9472  9474     9 
 9423  9422  9472  9475     9 
 9424  9422  9472  9473     9 
 9424  9422  9472  9474     9 
 9424  9422  9472  9475     9 
 9413  9425  9428  9429     9 
 9413  9425  9428  9430     9 
 9413  9425  9428  9431     9 
 9426  9425  9428  9429     9 
 9426  9425  9428  9430     9 
 9426  9425  9428  9431     9 
 9427  9425  9428  9429     9 
 9427  9425  9428  9430     9 
 9427  9425  9428  9431     9 
 9425  9428  9431  9432     9 
 9425  9428  9431  9433     9 
 9425  9428  9431  9434     9 
 9429  9428  9431  9432     9 
 9429  9428  9431  9433     9 
 9429  9428  9431  9434     9 
 9430  9428  9431  9432     9 
 9430  9428  9431  9433     9 
 9430  9428  9431  9434     9 
 9428  9431  9434  9435     9 
 9428  9431  9434  9436     9 
 9428  9431  9434  9437     9 
 9432  9431  9434  9435     9 
 9432  9431  9434  9436     9 
 9432  9431  9434  9437     9 
 9433  9431  9434  9435     9 
 9433  9431  9434  9436     9 
 9433  9431  9434  9437     9 
 9431  9434  9437  9438     9 
 9431  9434  9437  9439     9 
 9431  9434  9437  9440     9 
 9435  9434  9437  9438     9 
 9435  9434  9437  9439     9 
 9435  9434  9437  9440     9 
 9436  9434  9437  9438     9 
 9436  9434  9437  9439     9 
 9436  9434  9437  9440     9 
 9434  9437  9440  9441     9 
 9434  9437  9440  9442     9 
 9434  9437  9440  9443     9 
 9438  9437  9440  9441     9 
 9438  9437  9440  9442     9 
 9438  9437  9440  9443     9 
 9439  9437  9440  9441     9 
 9439  9437  9440  9442     9 
 9439  9437  9440  9443     9 
 9437  9440  9443  9444     9 
 9437  9440  9443  9445     9 
 9441  9440  9443  9444     9 
 9441  9440  9443  9445     9 
 9442  9440  9443  9444     9 
 9442  9440  9443  9445     9 
 9440  9443  9445  9446     9 
 9440  9443  9445  9447     9 
 9444  9443  9445  9446     9 
 9444  9443  9445  9447     9 
 9443  9445  9447  9448     9 
 9443  9445  9447  9449     9 
 9443  9445  9447  9450     9 
 9446  9445  9447  9448     9 
 9446  9445  9447  9449     9 
 9446  9445  9447  9450     9 
 9445  9447  9450  9451     9 
 9445  9447  9450  9452     9 
 9445  9447  9450  9453     9 
 9448  9447  9450  9451     9 
 9448  9447  9450  9452     9 
 9448  9447  9450  9453     9 
 9449  9447  9450  9451     9 
 9449  9447  9450  9452     9 
 9449  9447  9450  9453     9 
 9447  9450  9453  9454     9 
 9447  9450  9453  9455     9 
 9447  9450  9453  9456     9 
 9451  9450  9453  9454     9 
 9451  9450  9453  9455     9 
 9451  9450  9453  9456     9 
 9452  9450  9453  9454     9 
 9452  9450  9453  9455     9 
 9452  9450  9453  9456     9 
 9450  9453  9456  9457     9 
 9450  9453  9456  9458     9 
 9450  9453  9456  9459     9 
 9454  9453  9456  9457     9 
 9454  9453  9456  9458     9 
 9454  9453  9456  9459     9 
 9455  9453  9456  9457     9 
 9455  9453  9456  9458     9 
 9455  9453  9456  9459     9 
 9453  9456  9459  9460     9 
 9453  9456  9459  9461     9 
 9453  9456  9459  9462     9 
 9457  9456  9459  9460     9 
 9457  9456  9459  9461     9 
 9457  9456  9459  9462     9 
 9458  9456  9459  9460     9 
 9458  9456  9459  9461     9 
 9458  9456  9459  9462     9 
 9456  9459  9462  9463     9 
 9456  9459  9462  9464     9 
 9456  9459  9462  9465     9 
 9460  9459  9462  9463     9 
 9460  9459  9462  9464     9 
 9460  9459  9462  9465     9 
 9461  9459  9462  9463     9 
 9461  9459  9462  9464     9 
 9461  9459  9462  9465     9 
 9459  9462  9465  9466     9 
 9459  9462  9465  9467     9 
 9459  9462  9465  9468     9 
 9463  9462  9465  9466     9 
 9463  9462  9465  9467     9 
 9463  9462  9465  9468     9 
 9464  9462  9465  9466     9 
 9464  9462  9465  9467     9 
 9464  9462  9465  9468     9 
 9462  9465  9468  9469     9 
 9462  9465  9468  9470     9 
 9462  9465  9468  9471     9 
 9466  9465  9468  9469     9 
 9466  9465  9468  9470     9 
 9466  9465  9468  9471     9 
 9467  9465  9468  9469     9 
 9467  9465  9468  9470     9 
 9467  9465  9468  9471     9 
 9422  9472  9475  9476     9 
 9422  9472  9475  9477     9 
 9422  9472  9475  9478     9 
 9473  9472  9475  9476     9 
 9473  9472  9475  9477     9 
 9473  9472  9475  9478     9 
 9474  9472  9475  9476     9 
 9474  9472  9475  9477     9 
 9474  9472  9475  9478     9 
 9472  9475  9478  9479     9 
 9472  9475  9478  9480     9 
 9472  9475  9478  9481     9 
 9476  9475  9478  9479     9 
 9476  9475  9478  9480     9 
 9476  9475  9478  9481     9 
 9477  9475  9478  9479     9 
 9477  9475  9478  9480     9 
 9477  9475  9478  9481     9 
 9475  9478  9481  9482     9 
 9475  9478  9481  9483     9 
 9475  9478  9481  9484     9 
 9479  9478  9481  9482     9 
 9479  9478  9481  9483     9 
 9479  9478  9481  9484     9 
 9480  9478  9481  9482     9 
 9480  9478  9481  9483     9 
 9480  9478  9481  9484     9 
 9478  9481  9484  9485     9 
 9478  9481  9484  9486     9 
 9478  9481  9484  9487     9 
 9482  9481  9484  9485     9 
 9482  9481  9484  9486     9 
 9482  9481  9484  9487     9 
 9483  9481  9484  9485     9 
 9483  9481  9484  9486     9 
 9483  9481  9484  9487     9 
 9481  9484  9487  9488     9 
 9481  9484  9487  9489     9 
 9481  9484  9487  9490     9 
 9485  9484  9487  9488     9 
 9485  9484  9487  9489     9 
 9485  9484  9487  9490     9 
 9486  9484  9487  9488     9 
 9486  9484  9487  9489     9 
 9486  9484  9487  9490     9 
 9484  9487  9490  9491     9 
 9484  9487  9490  9492     9 
 9484  9487  9490  9493     9 
 9488  9487  9490  9491     9 
 9488  9487  9490  9492     9 
 9488  9487  9490  9493     9 
 9489  9487  9490  9491     9 
 9489  9487  9490  9492     9 
 9489  9487  9490  9493     9 
 9487  9490  9493  9494     9 
 9487  9490  9493  9495     9 
 9487  9490  9493  9496     9 
 9491  9490  9493  9494     9 
 9491  9490  9493  9495     9 
 9491  9490  9493  9496     9 
 9492  9490  9493  9494     9 
 9492  9490  9493  9495     9 
 9492  9490  9493  9496     9 
 9490  9493  9496  9497     9 
 9490  9493  9496  9498     9 
 9490  9493  9496  9499     9 
 9494  9493  9496  9497     9 
 9494  9493  9496  9498     9 
 9494  9493  9496  9499     9 
 9495  9493  9496  9497     9 
 9495  9493  9496  9498     9 
 9495  9493  9496  9499     9 
 9493  9496  9499  9500     9 
 9493  9496  9499  9501     9 
 9493  9496  9499  9502     9 
 9497  9496  9499  9500     9 
 9497  9496  9499  9501     9 
 9497  9496  9499  9502     9 
 9498  9496  9499  9500     9 
 9498  9496  9499  9501     9 
 9498  9496  9499  9502     9 
 9496  9499  9502  9503     9 
 9496  9499  9502  9504     9 
 9496  9499  9502  9505     9 
 9500  9499  9502  9503     9 
 9500  9499  9502  9504     9 
 9500  9499  9502  9505     9 
 9501  9499  9502  9503     9 
 9501  9499  9502  9504     9 
 9501  9499  9502  9505     9 
 9499  9502  9505  9506     9 
 9499  9502  9505  9507     9 
 9499  9502  9505  9508     9 
 9503  9502  9505  9506     9 
 9503  9502  9505  9507     9 
 9503  9502  9505  9508     9 
 9504  9502  9505  9506     9 
 9504  9502  9505  9507     9 
 9504  9502  9505  9508     9 
 9502  9505  9508  9509     9 
 9502  9505  9508  9510     9 
 9502  9505  9508  9511     9 
 9506  9505  9508  9509     9 
 9506  9505  9508  9510     9 
 9506  9505  9508  9511     9 
 9507  9505  9508  9509     9 
 9507  9505  9508  9510     9 
 9507  9505  9508  9511     9 
 9505  9508  9511  9512     9 
 9505  9508  9511  9513     9 
 9505  9508  9511  9514     9 
 9509  9508  9511  9512     9 
 9509  9508  9511  9513     9 
 9509  9508  9511  9514     9 
 9510  9508  9511  9512     9 
 9510  9508  9511  9513     9 
 9510  9508  9511  9514     9 
 9519  9515  9516  9517     9 
 9519  9515  9516  9518     9 
 9519  9515  9516  9531     9 
 9523  9515  9516  9517     9 
 9523  9515  9516  9518     9 
 9523  9515  9516  9531     9 
 9527  9515  9516  9517     9 
 9527  9515  9516  9518     9 
 9527  9515  9516  9531     9 
 9516  9515  9519  9520     9 
 9516  9515  9519  9521     9 
 9516  9515  9519  9522     9 
 9523  9515  9519  9520     9 
 9523  9515  9519  9521     9 
 9523  9515  9519  9522     9 
 9527  9515  9519  9520     9 
 9527  9515  9519  9521     9 
 9527  9515  9519  9522     9 
 9516  9515  9523  9524     9 
 9516  9515  9523  9525     9 
 9516  9515  9523  9526     9 
 9519  9515  9523  9524     9 
 9519  9515  9523  9525     9 
 9519  9515  9523  9526     9 
 9527  9515  9523  9524     9 
 9527  9515  9523  9525     9 
 9527  9515  9523  9526     9 
 9516  9515  9527  9528     9 
 9516  9515  9527  9529     9 
 9516  9515  9527  9530     9 
 9519  9515  9527  9528     9 
 9519  9515  9527  9529     9 
 9519  9515  9527  9530     9 
 9523  9515  9527  9528     9 
 9523  9515  9527  9529     9 
 9523  9515  9527  9530     9 
 9515  9516  9531  9532     9 
 9515  9516  9531  9533     9 
 9515  9516  9531  9537     9 
 9517  9516  9531  9532     9 
 9517  9516  9531  9533     9 
 9517  9516  9531  9537     9 
 9518  9516  9531  9532     9 
 9518  9516  9531  9533     9 
 9518  9516  9531  9537     9 
 9516  9531  9537  9534     9 
 9532  9531  9537  9534     9 
 9533  9531  9537  9534     9 
 9535  9534  9537  9531     9 
 9536  9534  9537  9531     9 
 9538  9534  9537  9531     9 
 9535  9534  9538  9539     9 
 9536  9534  9538  9539     9 
 9537  9534  9538  9539     9 
 9534  9538  9539  9540     9 
 9534  9538  9539  9541     9 
 9534  9538  9539  9542     9 
 9538  9539  9542  9543     9 
 9538  9539  9542  9544     9 
 9538  9539  9542  9550     9 
 9540  9539  9542  9543     9 
 9540  9539  9542  9544     9 
 9540  9539  9542  9550     9 
 9541  9539  9542  9543     9 
 9541  9539  9542  9544     9 
 9541  9539  9542  9550     9 
 9539  9542  9544  9545     9 
 9543  9542  9544  9545     9 
 9550  9542  9544  9545     9 
 9539  9542  9550  9551     9 
 9539  9542  9550  9552     9 
 9539  9542  9550  9553     9 
 9543  9542  9550  9551     9 
 9543  9542  9550  9552     9 
 9543  9542  9550  9553     9 
 9544  9542  9550  9551     9 
 9544  9542  9550  9552     9 
 9544  9542  9550  9553     9 
 9542  9544  9545  9546     9 
 9542  9544  9545  9547     9 
 9544  9545  9547  9548     9 
 9544  9545  9547  9549     9 
 9544  9545  9547  9559     9 
 9546  9545  9547  9548     9 
 9546  9545  9547  9549     9 
 9546  9545  9547  9559     9 
 9545  9547  9559  9560     9 
 9545  9547  9559  9561     9 
 9545  9547  9559  9562     9 
 9548  9547  9559  9560     9 
 9548  9547  9559  9561     9 
 9548  9547  9559  9562     9 
 9549  9547  9559  9560     9 
 9549  9547  9559  9561     9 
 9549  9547  9559  9562     9 
 9542  9550  9553  9554     9 
 9551  9550  9553  9554     9 
 9552  9550  9553  9554     9 
 9550  9553  9554  9555     9 
 9550  9553  9554  9556     9 
 9553  9554  9556  9557     9 
 9553  9554  9556  9558     9 
 9553  9554  9556  9606     9 
 9555  9554  9556  9557     9 
 9555  9554  9556  9558     9 
 9555  9554  9556  9606     9 
 9554  9556  9606  9607     9 
 9554  9556  9606  9608     9 
 9554  9556  9606  9609     9 
 9557  9556  9606  9607     9 
 9557  9556  9606  9608     9 
 9557  9556  9606  9609     9 
 9558  9556  9606  9607     9 
 9558  9556  9606  9608     9 
 9558  9556  9606  9609     9 
 9547  9559  9562  9563     9 
 9547  9559  9562  9564     9 
 9547  9559  9562  9565     9 
 9560  9559  9562  9563     9 
 9560  9559  9562  9564     9 
 9560  9559  9562  9565     9 
 9561  9559  9562  9563     9 
 9561  9559  9562  9564     9 
 9561  9559  9562  9565     9 
 9559  9562  9565  9566     9 
 9559  9562  9565  9567     9 
 9559  9562  9565  9568     9 
 9563  9562  9565  9566     9 
 9563  9562  9565  9567     9 
 9563  9562  9565  9568     9 
 9564  9562  9565  9566     9 
 9564  9562  9565  9567     9 
 9564  9562  9565  9568     9 
 9562  9565  9568  9569     9 
 9562  9565  9568  9570     9 
 9562  9565  9568  9571     9 
 9566  9565  9568  9569     9 
 9566  9565  9568  9570     9 
 9566  9565  9568  9571     9 
 9567  9565  9568  9569     9 
 9567  9565  9568  9570     9 
 9567  9565  9568  9571     9 
 9565  9568  9571  9572     9 
 9565  9568  9571  9573     9 
 9565  9568  9571  9574     9 
 9569  9568  9571  9572     9 
 9569  9568  9571  9573     9 
 9569  9568  9571  9574     9 
 9570  9568  9571  9572     9 
 9570  9568  9571  9573     9 
 9570  9568  9571  9574     9 
 9568  9571  9574  9575     9 
 9568  9571  9574  9576     9 
 9568  9571  9574  9577     9 
 9572  9571  9574  9575     9 
 9572  9571  9574  9576     9 
 9572  9571  9574  9577     9 
 9573  9571  9574  9575     9 
 9573  9571  9574  9576     9 
 9573  9571  9574  9577     9 
 9571  9574  9577  9578     9 
 9571  9574  9577  9579     9 
 9575  9574  9577  9578     9 
 9575  9574  9577  9579     9 
 9576  9574  9577  9578     9 
 9576  9574  9577  9579     9 
 9574  9577  9579  9580     9 
 9574  9577  9579  9581     9 
 9578  9577  9579  9580     9 
 9578  9577  9579  9581     9 
 9577  9579  9581  9582     9 
 9577  9579  9581  9583     9 
 9577  9579  9581  9584     9 
 9580  9579  9581  9582     9 
 9580  9579  9581  9583     9 
 9580  9579  9581  9584     9 
 9579  9581  9584  9585     9 
 9579  9581  9584  9586     9 
 9579  9581  9584  9587     9 
 9582  9581  9584  9585     9 
 9582  9581  9584  9586     9 
 9582  9581  9584  9587     9 
 9583  9581  9584  9585     9 
 9583  9581  9584  9586     9 
 9583  9581  9584  9587     9 
 9581  9584  9587  9588     9 
 9581  9584  9587  9589     9 
 9581  9584  9587  9590     9 
 9585  9584  9587  9588     9 
 9585  9584  9587  9589     9 
 9585  9584  9587  9590     9 
 9586  9584  9587  9588     9 
 9586  9584  9587  9589     9 
 9586  9584  9587  9590     9 
 9584  9587  9590  9591     9 
 9584  9587  9590  9592     9 
 9584  9587  9590  9593     9 
 9588  9587  9590  9591     9 
 9588  9587  9590  9592     9 
 9588  9587  9590  9593     9 
 9589  9587  9590  9591     9 
 9589  9587  9590  9592     9 
 9589  9587  9590  9593     9 
 9587  9590  9593  9594     9 
 9587  9590  9593  9595     9 
 9587  9590  9593  9596     9 
 9591  9590  9593  9594     9 
 9591  9590  9593  9595     9 
 9591  9590  9593  9596     9 
 9592  9590  9593  9594     9 
 9592  9590  9593  9595     9 
 9592  9590  9593  9596     9 
 9590  9593  9596  9597     9 
 9590  9593  9596  9598     9 
 9590  9593  9596  9599     9 
 9594  9593  9596  9597     9 
 9594  9593  9596  9598     9 
 9594  9593  9596  9599     9 
 9595  9593  9596  9597     9 
 9595  9593  9596  9598     9 
 9595  9593  9596  9599     9 
 9593  9596  9599  9600     9 
 9593  9596  9599  9601     9 
 9593  9596  9599  9602     9 
 9597  9596  9599  9600     9 
 9597  9596  9599  9601     9 
 9597  9596  9599  9602     9 
 9598  9596  9599  9600     9 
 9598  9596  9599  9601     9 
 9598  9596  9599  9602     9 
 9596  9599  9602  9603     9 
 9596  9599  9602  9604     9 
 9596  9599  9602  9605     9 
 9600  9599  9602  9603     9 
 9600  9599  9602  9604     9 
 9600  9599  9602  9605     9 
 9601  9599  9602  9603     9 
 9601  9599  9602  9604     9 
 9601  9599  9602  9605     9 
 9556  9606  9609  9610     9 
 9556  9606  9609  9611     9 
 9556  9606  9609  9612     9 
 9607  9606  9609  9610     9 
 9607  9606  9609  9611     9 
 9607  9606  9609  9612     9 
 9608  9606  9609  9610     9 
 9608  9606  9609  9611     9 
 9608  9606  9609  9612     9 
 9606  9609  9612  9613     9 
 9606  9609  9612  9614     9 
 9606  9609  9612  9615     9 
 9610  9609  9612  9613     9 
 9610  9609  9612  9614     9 
 9610  9609  9612  9615     9 
 9611  9609  9612  9613     9 
 9611  9609  9612  9614     9 
 9611  9609  9612  9615     9 
 9609  9612  9615  9616     9 
 9609  9612  9615  9617     9 
 9609  9612  9615  9618     9 
 9613  9612  9615  9616     9 
 9613  9612  9615  9617     9 
 9613  9612  9615  9618     9 
 9614  9612  9615  9616     9 
 9614  9612  9615  9617     9 
 9614  9612  9615  9618     9 
 9612  9615  9618  9619     9 
 9612  9615  9618  9620     9 
 9612  9615  9618  9621     9 
 9616  9615  9618  9619     9 
 9616  9615  9618  9620     9 
 9616  9615  9618  9621     9 
 9617  9615  9618  9619     9 
 9617  9615  9618  9620     9 
 9617  9615  9618  9621     9 
 9615  9618  9621  9622     9 
 9615  9618  9621  9623     9 
 9615  9618  9621  9624     9 
 9619  9618  9621  9622     9 
 9619  9618  9621  9623     9 
 9619  9618  9621  9624     9 
 9620  9618  9621  9622     9 
 9620  9618  9621  9623     9 
 9620  9618  9621  9624     9 
 9618  9621  9624  9625     9 
 9618  9621  9624  9626     9 
 9618  9621  9624  9627     9 
 9622  9621  9624  9625     9 
 9622  9621  9624  9626     9 
 9622  9621  9624  9627     9 
 9623  9621  9624  9625     9 
 9623  9621  9624  9626     9 
 9623  9621  9624  9627     9 
 9621  9624  9627  9628     9 
 9621  9624  9627  9629     9 
 9621  9624  9627  9630     9 
 9625  9624  9627  9628     9 
 9625  9624  9627  9629     9 
 9625  9624  9627  9630     9 
 9626  9624  9627  9628     9 
 9626  9624  9627  9629     9 
 9626  9624  9627  9630     9 
 9624  9627  9630  9631     9 
 9624  9627  9630  9632     9 
 9624  9627  9630  9633     9 
 9628  9627  9630  9631     9 
 9628  9627  9630  9632     9 
 9628  9627  9630  9633     9 
 9629  9627  9630  9631     9 
 9629  9627  9630  9632     9 
 9629  9627  9630  9633     9 
 9627  9630  9633  9634     9 
 9627  9630  9633  9635     9 
 9627  9630  9633  9636     9 
 9631  9630  9633  9634     9 
 9631  9630  9633  9635     9 
 9631  9630  9633  9636     9 
 9632  9630  9633  9634     9 
 9632  9630  9633  9635     9 
 9632  9630  9633  9636     9 
 9630  9633  9636  9637     9 
 9630  9633  9636  9638     9 
 9630  9633  9636  9639     9 
 9634  9633  9636  9637     9 
 9634  9633  9636  9638     9 
 9634  9633  9636  9639     9 
 9635  9633  9636  9637     9 
 9635  9633  9636  9638     9 
 9635  9633  9636  9639     9 
 9633  9636  9639  9640     9 
 9633  9636  9639  9641     9 
 9633  9636  9639  9642     9 
 9637  9636  9639  9640     9 
 9637  9636  9639  9641     9 
 9637  9636  9639  9642     9 
 9638  9636  9639  9640     9 
 9638  9636  9639  9641     9 
 9638  9636  9639  9642     9 
 9636  9639  9642  9643     9 
 9636  9639  9642  9644     9 
 9636  9639  9642  9645     9 
 9640  9639  9642  9643     9 
 9640  9639  9642  9644     9 
 9640  9639  9642  9645     9 
 9641  9639  9642  9643     9 
 9641  9639  9642  9644     9 
 9641  9639  9642  9645     9 
 9639  9642  9645  9646     9 
 9639  9642  9645  9647     9 
 9639  9642  9645  9648     9 
 9643  9642  9645  9646     9 
 9643  9642  9645  9647     9 
 9643  9642  9645  9648     9 
 9644  9642  9645  9646     9 
 9644  9642  9645  9647     9 
 9644  9642  9645  9648     9 
 9653  9649  9650  9651     9 
 9653  9649  9650  9652     9 
 9653  9649  9650  9665     9 
 9657  9649  9650  9651     9 
 9657  9649  9650  9652     9 
 9657  9649  9650  9665     9 
 9661  9649  9650  9651     9 
 9661  9649  9650  9652     9 
 9661  9649  9650  9665     9 
 9650  9649  9653  9654     9 
 9650  9649  9653  9655     9 
 9650  9649  9653  9656     9 
 9657  9649  9653  9654     9 
 9657  9649  9653  9655     9 
 9657  9649  9653  9656     9 
 9661  9649  9653  9654     9 
 9661  9649  9653  9655     9 
 9661  9649  9653  9656     9 
 9650  9649  9657  9658     9 
 9650  9649  9657  9659     9 
 9650  9649  9657  9660     9 
 9653  9649  9657  9658     9 
 9653  9649  9657  9659     9 
 9653  9649  9657  9660     9 
 9661  9649  9657  9658     9 
 9661  9649  9657  9659     9 
 9661  9649  9657  9660     9 
 9650  9649  9661  9662     9 
 9650  9649  9661  9663     9 
 9650  9649  9661  9664     9 
 9653  9649  9661  9662     9 
 9653  9649  9661  9663     9 
 9653  9649  9661  9664     9 
 9657  9649  9661  9662     9 
 9657  9649  9661  9663     9 
 9657  9649  9661  9664     9 
 9649  9650  9665  9666     9 
 9649  9650  9665  9667     9 
 9649  9650  9665  9671     9 
 9651  9650  9665  9666     9 
 9651  9650  9665  9667     9 
 9651  9650  9665  9671     9 
 9652  9650  9665  9666     9 
 9652  9650  9665  9667     9 
 9652  9650  9665  9671     9 
 9650  9665  9671  9668     9 
 9666  9665  9671  9668     9 
 9667  9665  9671  9668     9 
 9669  9668  9671  9665     9 
 9670  9668  9671  9665     9 
 9672  9668  9671  9665     9 
 9669  9668  9672  9673     9 
 9670  9668  9672  9673     9 
 9671  9668  9672  9673     9 
 9668  9672  9673  9674     9 
 9668  9672  9673  9675     9 
 9668  9672  9673  9676     9 
 9672  9673  9676  9677     9 
 9672  9673  9676  9678     9 
 9672  9673  9676  9684     9 
 9674  9673  9676  9677     9 
 9674  9673  9676  9678     9 
 9674  9673  9676  9684     9 
 9675  9673  9676  9677     9 
 9675  9673  9676  9678     9 
 9675  9673  9676  9684     9 
 9673  9676  9678  9679     9 
 9677  9676  9678  9679     9 
 9684  9676  9678  9679     9 
 9673  9676  9684  9685     9 
 9673  9676  9684  9686     9 
 9673  9676  9684  9687     9 
 9677  9676  9684  9685     9 
 9677  9676  9684  9686     9 
 9677  9676  9684  9687     9 
 9678  9676  9684  9685     9 
 9678  9676  9684  9686     9 
 9678  9676  9684  9687     9 
 9676  9678  9679  9680     9 
 9676  9678  9679  9681     9 
 9678  9679  9681  9682     9 
 9678  9679  9681  9683     9 
 9678  9679  9681  9693     9 
 9680  9679  9681  9682     9 
 9680  9679  9681  9683     9 
 9680  9679  9681  9693     9 
 9679  9681  9693  9694     9 
 9679  9681  9693  9695     9 
 9679  9681  9693  9696     9 
 9682  9681  9693  9694     9 
 9682  9681  9693  9695     9 
 9682  9681  9693  9696     9 
 9683  9681  9693  9694     9 
 9683  9681  9693  9695     9 
 9683  9681  9693  9696     9 
 9676  9684  9687  9688     9 
 9685  9684  9687  9688     9 
 9686  9684  9687  9688     9 
 9684  9687  9688  9689     9 
 9684  9687  9688  9690     9 
 9687  9688  9690  9691     9 
 9687  9688  9690  9692     9 
 9687  9688  9690  9740     9 
 9689  9688  9690  9691     9 
 9689  9688  9690  9692     9 
 9689  9688  9690  9740     9 
 9688  9690  9740  9741     9 
 9688  9690  9740  9742     9 
 9688  9690  9740  9743     9 
 9691  9690  9740  9741     9 
 9691  9690  9740  9742     9 
 9691  9690  9740  9743     9 
 9692  9690  9740  9741     9 
 9692  9690  9740  9742     9 
 9692  9690  9740  9743     9 
 9681  9693  9696  9697     9 
 9681  9693  9696  9698     9 
 9681  9693  9696  9699     9 
 9694  9693  9696  9697     9 
 9694  9693  9696  9698     9 
 9694  9693  9696  9699     9 
 9695  9693  9696  9697     9 
 9695  9693  9696  9698     9 
 9695  9693  9696  9699     9 
 9693  9696  9699  9700     9 
 9693  9696  9699  9701     9 
 9693  9696  9699  9702     9 
 9697  9696  9699  9700     9 
 9697  9696  9699  9701     9 
 9697  9696  9699  9702     9 
 9698  9696  9699  9700     9 
 9698  9696  9699  9701     9 
 9698  9696  9699  9702     9 
 9696  9699  9702  9703     9 
 9696  9699  9702  9704     9 
 9696  9699  9702  9705     9 
 9700  9699  9702  9703     9 
 9700  9699  9702  9704     9 
 9700  9699  9702  9705     9 
 9701  9699  9702  9703     9 
 9701  9699  9702  9704     9 
 9701  9699  9702  9705     9 
 9699  9702  9705  9706     9 
 9699  9702  9705  9707     9 
 9699  9702  9705  9708     9 
 9703  9702  9705  9706     9 
 9703  9702  9705  9707     9 
 9703  9702  9705  9708     9 
 9704  9702  9705  9706     9 
 9704  9702  9705  9707     9 
 9704  9702  9705  9708     9 
 9702  9705  9708  9709     9 
 9702  9705  9708  9710     9 
 9702  9705  9708  9711     9 
 9706  9705  9708  9709     9 
 9706  9705  9708  9710     9 
 9706  9705  9708  9711     9 
 9707  9705  9708  9709     9 
 9707  9705  9708  9710     9 
 9707  9705  9708  9711     9 
 9705  9708  9711  9712     9 
 9705  9708  9711  9713     9 
 9709  9708  9711  9712     9 
 9709  9708  9711  9713     9 
 9710  9708  9711  9712     9 
 9710  9708  9711  9713     9 
 9708  9711  9713  9714     9 
 9708  9711  9713  9715     9 
 9712  9711  9713  9714     9 
 9712  9711  9713  9715     9 
 9711  9713  9715  9716     9 
 9711  9713  9715  9717     9 
 9711  9713  9715  9718     9 
 9714  9713  9715  9716     9 
 9714  9713  9715  9717     9 
 9714  9713  9715  9718     9 
 9713  9715  9718  9719     9 
 9713  9715  9718  9720     9 
 9713  9715  9718  9721     9 
 9716  9715  9718  9719     9 
 9716  9715  9718  9720     9 
 9716  9715  9718  9721     9 
 9717  9715  9718  9719     9 
 9717  9715  9718  9720     9 
 9717  9715  9718  9721     9 
 9715  9718  9721  9722     9 
 9715  9718  9721  9723     9 
 9715  9718  9721  9724     9 
 9719  9718  9721  9722     9 
 9719  9718  9721  9723     9 
 9719  9718  9721  9724     9 
 9720  9718  9721  9722     9 
 9720  9718  9721  9723     9 
 9720  9718  9721  9724     9 
 9718  9721  9724  9725     9 
 9718  9721  9724  9726     9 
 9718  9721  9724  9727     9 
 9722  9721  9724  9725     9 
 9722  9721  9724  9726     9 
 9722  9721  9724  9727     9 
 9723  9721  9724  9725     9 
 9723  9721  9724  9726     9 
 9723  9721  9724  9727     9 
 9721  9724  9727  9728     9 
 9721  9724  9727  9729     9 
 9721  9724  9727  9730     9 
 9725  9724  9727  9728     9 
 9725  9724  9727  9729     9 
 9725  9724  9727  9730     9 
 9726  9724  9727  9728     9 
 9726  9724  9727  9729     9 
 9726  9724  9727  9730     9 
 9724  9727  9730  9731     9 
 9724  9727  9730  9732     9 
 9724  9727  9730  9733     9 
 9728  9727  9730  9731     9 
 9728  9727  9730  9732     9 
 9728  9727  9730  9733     9 
 9729  9727  9730  9731     9 
 9729  9727  9730  9732     9 
 9729  9727  9730  9733     9 
 9727  9730  9733  9734     9 
 9727  9730  9733  9735     9 
 9727  9730  9733  9736     9 
 9731  9730  9733  9734     9 
 9731  9730  9733  9735     9 
 9731  9730  9733  9736     9 
 9732  9730  9733  9734     9 
 9732  9730  9733  9735     9 
 9732  9730  9733  9736     9 
 9730  9733  9736  9737     9 
 9730  9733  9736  9738     9 
 9730  9733  9736  9739     9 
 9734  9733  9736  9737     9 
 9734  9733  9736  9738     9 
 9734  9733  9736  9739     9 
 9735  9733  9736  9737     9 
 9735  9733  9736  9738     9 
 9735  9733  9736  9739     9 
 9690  9740  9743  9744     9 
 9690  9740  9743  9745     9 
 9690  9740  9743  9746     9 
 9741  9740  9743  9744     9 
 9741  9740  9743  9745     9 
 9741  9740  9743  9746     9 
 9742  9740  9743  9744     9 
 9742  9740  9743  9745     9 
 9742  9740  9743  9746     9 
 9740  9743  9746  9747     9 
 9740  9743  9746  9748     9 
 9740  9743  9746  9749     9 
 9744  9743  9746  9747     9 
 9744  9743  9746  9748     9 
 9744  9743  9746  9749     9 
 9745  9743  9746  9747     9 
 9745  9743  9746  9748     9 
 9745  9743  9746  9749     9 
 9743  9746  9749  9750     9 
 9743  9746  9749  9751     9 
 9743  9746  9749  9752     9 
 9747  9746  9749  9750     9 
 9747  9746  9749  9751     9 
 9747  9746  9749  9752     9 
 9748  9746  9749  9750     9 
 9748  9746  9749  9751     9 
 9748  9746  9749  9752     9 
 9746  9749  9752  9753     9 
 9746  9749  9752  9754     9 
 9746  9749  9752  9755     9 
 9750  9749  9752  9753     9 
 9750  9749  9752  9754     9 
 9750  9749  9752  9755     9 
 9751  9749  9752  9753     9 
 9751  9749  9752  9754     9 
 9751  9749  9752  9755     9 
 9749  9752  9755  9756     9 
 9749  9752  9755  9757     9 
 9749  9752  9755  9758     9 
 9753  9752  9755  9756     9 
 9753  9752  9755  9757     9 
 9753  9752  9755  9758     9 
 9754  9752  9755  9756     9 
 9754  9752  9755  9757     9 
 9754  9752  9755  9758     9 
 9752  9755  9758  9759     9 
 9752  9755  9758  9760     9 
 9752  9755  9758  9761     9 
 9756  9755  9758  9759     9 
 9756  9755  9758  9760     9 
 9756  9755  9758  9761     9 
 9757  9755  9758  9759     9 
 9757  9755  9758  9760     9 
 9757  9755  9758  9761     9 
 9755  9758  9761  9762     9 
 9755  9758  9761  9763     9 
 9755  9758  9761  9764     9 
 9759  9758  9761  9762     9 
 9759  9758  9761  9763     9 
 9759  9758  9761  9764     9 
 9760  9758  9761  9762     9 
 9760  9758  9761  9763     9 
 9760  9758  9761  9764     9 
 9758  9761  9764  9765     9 
 9758  9761  9764  9766     9 
 9758  9761  9764  9767     9 
 9762  9761  9764  9765     9 
 9762  9761  9764  9766     9 
 9762  9761  9764  9767     9 
 9763  9761  9764  9765     9 
 9763  9761  9764  9766     9 
 9763  9761  9764  9767     9 
 9761  9764  9767  9768     9 
 9761  9764  9767  9769     9 
 9761  9764  9767  9770     9 
 9765  9764  9767  9768     9 
 9765  9764  9767  9769     9 
 9765  9764  9767  9770     9 
 9766  9764  9767  9768     9 
 9766  9764  9767  9769     9 
 9766  9764  9767  9770     9 
 9764  9767  9770  9771     9 
 9764  9767  9770  9772     9 
 9764  9767  9770  9773     9 
 9768  9767  9770  9771     9 
 9768  9767  9770  9772     9 
 9768  9767  9770  9773     9 
 9769  9767  9770  9771     9 
 9769  9767  9770  9772     9 
 9769  9767  9770  9773     9 
 9767  9770  9773  9774     9 
 9767  9770  9773  9775     9 
 9767  9770  9773  9776     9 
 9771  9770  9773  9774     9 
 9771  9770  9773  9775     9 
 9771  9770  9773  9776     9 
 9772  9770  9773  9774     9 
 9772  9770  9773  9775     9 
 9772  9770  9773  9776     9 
 9770  9773  9776  9777     9 
 9770  9773  9776  9778     9 
 9770  9773  9776  9779     9 
 9774  9773  9776  9777     9 
 9774  9773  9776  9778     9 
 9774  9773  9776  9779     9 
 9775  9773  9776  9777     9 
 9775  9773  9776  9778     9 
 9775  9773  9776  9779     9 
 9773  9776  9779  9780     9 
 9773  9776  9779  9781     9 
 9773  9776  9779  9782     9 
 9777  9776  9779  9780     9 
 9777  9776  9779  9781     9 
 9777  9776  9779  9782     9 
 9778  9776  9779  9780     9 
 9778  9776  9779  9781     9 
 9778  9776  9779  9782     9 
 9787  9783  9784  9785     9 
 9787  9783  9784  9786     9 
 9787  9783  9784  9799     9 
 9791  9783  9784  9785     9 
 9791  9783  9784  9786     9 
 9791  9783  9784  9799     9 
 9795  9783  9784  9785     9 
 9795  9783  9784  9786     9 
 9795  9783  9784  9799     9 
 9784  9783  9787  9788     9 
 9784  9783  9787  9789     9 
 9784  9783  9787  9790     9 
 9791  9783  9787  9788     9 
 9791  9783  9787  9789     9 
 9791  9783  9787  9790     9 
 9795  9783  9787  9788     9 
 9795  9783  9787  9789     9 
 9795  9783  9787  9790     9 
 9784  9783  9791  9792     9 
 9784  9783  9791  9793     9 
 9784  9783  9791  9794     9 
 9787  9783  9791  9792     9 
 9787  9783  9791  9793     9 
 9787  9783  9791  9794     9 
 9795  9783  9791  9792     9 
 9795  9783  9791  9793     9 
 9795  9783  9791  9794     9 
 9784  9783  9795  9796     9 
 9784  9783  9795  9797     9 
 9784  9783  9795  9798     9 
 9787  9783  9795  9796     9 
 9787  9783  9795  9797     9 
 9787  9783  9795  9798     9 
 9791  9783  9795  9796     9 
 9791  9783  9795  9797     9 
 9791  9783  9795  9798     9 
 9783  9784  9799  9800     9 
 9783  9784  9799  9801     9 
 9783  9784  9799  9805     9 
 9785  9784  9799  9800     9 
 9785  9784  9799  9801     9 
 9785  9784  9799  9805     9 
 9786  9784  9799  9800     9 
 9786  9784  9799  9801     9 
 9786  9784  9799  9805     9 
 9784  9799  9805  9802     9 
 9800  9799  9805  9802     9 
 9801  9799  9805  9802     9 
 9803  9802  9805  9799     9 
 9804  9802  9805  9799     9 
 9806  9802  9805  9799     9 
 9803  9802  9806  9807     9 
 9804  9802  9806  9807     9 
 9805  9802  9806  9807     9 
 9802  9806  9807  9808     9 
 9802  9806  9807  9809     9 
 9802  9806  9807  9810     9 
 9806  9807  9810  9811     9 
 9806  9807  9810  9812     9 
 9806  9807  9810  9818     9 
 9808  9807  9810  9811     9 
 9808  9807  9810  9812     9 
 9808  9807  9810  9818     9 
 9809  9807  9810  9811     9 
 9809  9807  9810  9812     9 
 9809  9807  9810  9818     9 
 9807  9810  9812  9813     9 
 9811  9810  9812  9813     9 
 9818  9810  9812  9813     9 
 9807  9810  9818  9819     9 
 9807  9810  9818  9820     9 
 9807  9810  9818  9821     9 
 9811  9810  9818  9819     9 
 9811  9810  9818  9820     9 
 9811  9810  9818  9821     9 
 9812  9810  9818  9819     9 
 9812  9810  9818  9820     9 
 9812  9810  9818  9821     9 
 9810  9812  9813  9814     9 
 9810  9812  9813  9815     9 
 9812  9813  9815  9816     9 
 9812  9813  9815  9817     9 
 9812  9813  9815  9827     9 
 9814  9813  9815  9816     9 
 9814  9813  9815  9817     9 
 9814  9813  9815  9827     9 
 9813  9815  9827  9828     9 
 9813  9815  9827  9829     9 
 9813  9815  9827  9830     9 
 9816  9815  9827  9828     9 
 9816  9815  9827  9829     9 
 9816  9815  9827  9830     9 
 9817  9815  9827  9828     9 
 9817  9815  9827  9829     9 
 9817  9815  9827  9830     9 
 9810  9818  9821  9822     9 
 9819  9818  9821  9822     9 
 9820  9818  9821  9822     9 
 9818  9821  9822  9823     9 
 9818  9821  9822  9824     9 
 9821  9822  9824  9825     9 
 9821  9822  9824  9826     9 
 9821  9822  9824  9874     9 
 9823  9822  9824  9825     9 
 9823  9822  9824  9826     9 
 9823  9822  9824  9874     9 
 9822  9824  9874  9875     9 
 9822  9824  9874  9876     9 
 9822  9824  9874  9877     9 
 9825  9824  9874  9875     9 
 9825  9824  9874  9876     9 
 9825  9824  9874  9877     9 
 9826  9824  9874  9875     9 
 9826  9824  9874  9876     9 
 9826  9824  9874  9877     9 
 9815  9827  9830  9831     9 
 9815  9827  9830  9832     9 
 9815  9827  9830  9833     9 
 9828  9827  9830  9831     9 
 9828  9827  9830  9832     9 
 9828  9827  9830  9833     9 
 9829  9827  9830  9831     9 
 9829  9827  9830  9832     9 
 9829  9827  9830  9833     9 
 9827  9830  9833  9834     9 
 9827  9830  9833  9835     9 
 9827  9830  9833  9836     9 
 9831  9830  9833  9834     9 
 9831  9830  9833  9835     9 
 9831  9830  9833  9836     9 
 9832  9830  9833  9834     9 
 9832  9830  9833  9835     9 
 9832  9830  9833  9836     9 
 9830  9833  9836  9837     9 
 9830  9833  9836  9838     9 
 9830  9833  9836  9839     9 
 9834  9833  9836  9837     9 
 9834  9833  9836  9838     9 
 9834  9833  9836  9839     9 
 9835  9833  9836  9837     9 
 9835  9833  9836  9838     9 
 9835  9833  9836  9839     9 
 9833  9836  9839  9840     9 
 9833  9836  9839  9841     9 
 9833  9836  9839  9842     9 
 9837  9836  9839  9840     9 
 9837  9836  9839  9841     9 
 9837  9836  9839  9842     9 
 9838  9836  9839  9840     9 
 9838  9836  9839  9841     9 
 9838  9836  9839  9842     9 
 9836  9839  9842  9843     9 
 9836  9839  9842  9844     9 
 9836  9839  9842  9845     9 
 9840  9839  9842  9843     9 
 9840  9839  9842  9844     9 
 9840  9839  9842  9845     9 
 9841  9839  9842  9843     9 
 9841  9839  9842  9844     9 
 9841  9839  9842  9845     9 
 9839  9842  9845  9846     9 
 9839  9842  9845  9847     9 
 9843  9842  9845  9846     9 
 9843  9842  9845  9847     9 
 9844  9842  9845  9846     9 
 9844  9842  9845  9847     9 
 9842  9845  9847  9848     9 
 9842  9845  9847  9849     9 
 9846  9845  9847  9848     9 
 9846  9845  9847  9849     9 
 9845  9847  9849  9850     9 
 9845  9847  9849  9851     9 
 9845  9847  9849  9852     9 
 9848  9847  9849  9850     9 
 9848  9847  9849  9851     9 
 9848  9847  9849  9852     9 
 9847  9849  9852  9853     9 
 9847  9849  9852  9854     9 
 9847  9849  9852  9855     9 
 9850  9849  9852  9853     9 
 9850  9849  9852  9854     9 
 9850  9849  9852  9855     9 
 9851  9849  9852  9853     9 
 9851  9849  9852  9854     9 
 9851  9849  9852  9855     9 
 9849  9852  9855  9856     9 
 9849  9852  9855  9857     9 
 9849  9852  9855  9858     9 
 9853  9852  9855  9856     9 
 9853  9852  9855  9857     9 
 9853  9852  9855  9858     9 
 9854  9852  9855  9856     9 
 9854  9852  9855  9857     9 
 9854  9852  9855  9858     9 
 9852  9855  9858  9859     9 
 9852  9855  9858  9860     9 
 9852  9855  9858  9861     9 
 9856  9855  9858  9859     9 
 9856  9855  9858  9860     9 
 9856  9855  9858  9861     9 
 9857  9855  9858  9859     9 
 9857  9855  9858  9860     9 
 9857  9855  9858  9861     9 
 9855  9858  9861  9862     9 
 9855  9858  9861  9863     9 
 9855  9858  9861  9864     9 
 9859  9858  9861  9862     9 
 9859  9858  9861  9863     9 
 9859  9858  9861  9864     9 
 9860  9858  9861  9862     9 
 9860  9858  9861  9863     9 
 9860  9858  9861  9864     9 
 9858  9861  9864  9865     9 
 9858  9861  9864  9866     9 
 9858  9861  9864  9867     9 
 9862  9861  9864  9865     9 
 9862  9861  9864  9866     9 
 9862  9861  9864  9867     9 
 9863  9861  9864  9865     9 
 9863  9861  9864  9866     9 
 9863  9861  9864  9867     9 
 9861  9864  9867  9868     9 
 9861  9864  9867  9869     9 
 9861  9864  9867  9870     9 
 9865  9864  9867  9868     9 
 9865  9864  9867  9869     9 
 9865  9864  9867  9870     9 
 9866  9864  9867  9868     9 
 9866  9864  9867  9869     9 
 9866  9864  9867  9870     9 
 9864  9867  9870  9871     9 
 9864  9867  9870  9872     9 
 9864  9867  9870  9873     9 
 9868  9867  9870  9871     9 
 9868  9867  9870  9872     9 
 9868  9867  9870  9873     9 
 9869  9867  9870  9871     9 
 9869  9867  9870  9872     9 
 9869  9867  9870  9873     9 
 9824  9874  9877  9878     9 
 9824  9874  9877  9879     9 
 9824  9874  9877  9880     9 
 9875  9874  9877  9878     9 
 9875  9874  9877  9879     9 
 9875  9874  9877  9880     9 
 9876  9874  9877  9878     9 
 9876  9874  9877  9879     9 
 9876  9874  9877  9880     9 
 9874  9877  9880  9881     9 
 9874  9877  9880  9882     9 
 9874  9877  9880  9883     9 
 9878  9877  9880  9881     9 
 9878  9877  9880  9882     9 
 9878  9877  9880  9883     9 
 9879  9877  9880  9881     9 
 9879  9877  9880  9882     9 
 9879  9877  9880  9883     9 
 9877  9880  9883  9884     9 
 9877  9880  9883  9885     9 
 9877  9880  9883  9886     9 
 9881  9880  9883  9884     9 
 9881  9880  9883  9885     9 
 9881  9880  9883  9886     9 
 9882  9880  9883  9884     9 
 9882  9880  9883  9885     9 
 9882  9880  9883  9886     9 
 9880  9883  9886  9887     9 
 9880  9883  9886  9888     9 
 9880  9883  9886  9889     9 
 9884  9883  9886  9887     9 
 9884  9883  9886  9888     9 
 9884  9883  9886  9889     9 
 9885  9883  9886  9887     9 
 9885  9883  9886  9888     9 
 9885  9883  9886  9889     9 
 9883  9886  9889  9890     9 
 9883  9886  9889  9891     9 
 9883  9886  9889  9892     9 
 9887  9886  9889  9890     9 
 9887  9886  9889  9891     9 
 9887  9886  9889  9892     9 
 9888  9886  9889  9890     9 
 9888  9886  9889  9891     9 
 9888  9886  9889  9892     9 
 9886  9889  9892  9893     9 
 9886  9889  9892  9894     9 
 9886  9889  9892  9895     9 
 9890  9889  9892  9893     9 
 9890  9889  9892  9894     9 
 9890  9889  9892  9895     9 
 9891  9889  9892  9893     9 
 9891  9889  9892  9894     9 
 9891  9889  9892  9895     9 
 9889  9892  9895  9896     9 
 9889  9892  9895  9897     9 
 9889  9892  9895  9898     9 
 9893  9892  9895  9896     9 
 9893  9892  9895  9897     9 
 9893  9892  9895  9898     9 
 9894  9892  9895  9896     9 
 9894  9892  9895  9897     9 
 9894  9892  9895  9898     9 
 9892  9895  9898  9899     9 
 9892  9895  9898  9900     9 
 9892  9895  9898  9901     9 
 9896  9895  9898  9899     9 
 9896  9895  9898  9900     9 
 9896  9895  9898  9901     9 
 9897  9895  9898  9899     9 
 9897  9895  9898  9900     9 
 9897  9895  9898  9901     9 
 9895  9898  9901  9902     9 
 9895  9898  9901  9903     9 
 9895  9898  9901  9904     9 
 9899  9898  9901  9902     9 
 9899  9898  9901  9903     9 
 9899  9898  9901  9904     9 
 9900  9898  9901  9902     9 
 9900  9898  9901  9903     9 
 9900  9898  9901  9904     9 
 9898  9901  9904  9905     9 
 9898  9901  9904  9906     9 
 9898  9901  9904  9907     9 
 9902  9901  9904  9905     9 
 9902  9901  9904  9906     9 
 9902  9901  9904  9907     9 
 9903  9901  9904  9905     9 
 9903  9901  9904  9906     9 
 9903  9901  9904  9907     9 
 9901  9904  9907  9908     9 
 9901  9904  9907  9909     9 
 9901  9904  9907  9910     9 
 9905  9904  9907  9908     9 
 9905  9904  9907  9909     9 
 9905  9904  9907  9910     9 
 9906  9904  9907  9908     9 
 9906  9904  9907  9909     9 
 9906  9904  9907  9910     9 
 9904  9907  9910  9911     9 
 9904  9907  9910  9912     9 
 9904  9907  9910  9913     9 
 9908  9907  9910  9911     9 
 9908  9907  9910  9912     9 
 9908  9907  9910  9913     9 
 9909  9907  9910  9911     9 
 9909  9907  9910  9912     9 
 9909  9907  9910  9913     9 
 9907  9910  9913  9914     9 
 9907  9910  9913  9915     9 
 9907  9910  9913  9916     9 
 9911  9910  9913  9914     9 
 9911  9910  9913  9915     9 
 9911  9910  9913  9916     9 
 9912  9910  9913  9914     9 
 9912  9910  9913  9915     9 
 9912  9910  9913  9916     9 
 9921  9917  9918  9919     9 
 9921  9917  9918  9920     9 
 9921  9917  9918  9933     9 
 9925  9917  9918  9919     9 
 9925  9917  9918  9920     9 
 9925  9917  9918  9933     9 
 9929  9917  9918  9919     9 
 9929  9917  9918  9920     9 
 9929  9917  9918  9933     9 
 9918  9917  9921  9922     9 
 9918  9917  9921  9923     9 
 9918  9917  9921  9924     9 
 9925  9917  9921  9922     9 
 9925  9917  9921  9923     9 
 9925  9917  9921  9924     9 
 9929  9917  9921  9922     9 
 9929  9917  9921  9923     9 
 9929  9917  9921  9924     9 
 9918  9917  9925  9926     9 
 9918  9917  9925  9927     9 
 9918  9917  9925  9928     9 
 9921  9917  9925  9926     9 
 9921  9917  9925  9927     9 
 9921  9917  9925  9928     9 
 9929  9917  9925  9926     9 
 9929  9917  9925  9927     9 
 9929  9917  9925  9928     9 
 9918  9917  9929  9930     9 
 9918  9917  9929  9931     9 
 9918  9917  9929  9932     9 
 9921  9917  9929  9930     9 
 9921  9917  9929  9931     9 
 9921  9917  9929  9932     9 
 9925  9917  9929  9930     9 
 9925  9917  9929  9931     9 
 9925  9917  9929  9932     9 
 9917  9918  9933  9934     9 
 9917  9918  9933  9935     9 
 9917  9918  9933  9939     9 
 9919  9918  9933  9934     9 
 9919  9918  9933  9935     9 
 9919  9918  9933  9939     9 
 9920  9918  9933  9934     9 
 9920  9918  9933  9935     9 
 9920  9918  9933  9939     9 
 9918  9933  9939  9936     9 
 9934  9933  9939  9936     9 
 9935  9933  9939  9936     9 
 9937  9936  9939  9933     9 
 9938  9936  9939  9933     9 
 9940  9936  9939  9933     9 
 9937  9936  9940  9941     9 
 9938  9936  9940  9941     9 
 9939  9936  9940  9941     9 
 9936  9940  9941  9942     9 
 9936  9940  9941  9943     9 
 9936  9940  9941  9944     9 
 9940  9941  9944  9945     9 
 9940  9941  9944  9946     9 
 9940  9941  9944  9952     9 
 9942  9941  9944  9945     9 
 9942  9941  9944  9946     9 
 9942  9941  9944  9952     9 
 9943  9941  9944  9945     9 
 9943  9941  9944  9946     9 
 9943  9941  9944  9952     9 
 9941  9944  9946  9947     9 
 9945  9944  9946  9947     9 
 9952  9944  9946  9947     9 
 9941  9944  9952  9953     9 
 9941  9944  9952  9954     9 
 9941  9944  9952  9955     9 
 9945  9944  9952  9953     9 
 9945  9944  9952  9954     9 
 9945  9944  9952  9955     9 
 9946  9944  9952  9953     9 
 9946  9944  9952  9954     9 
 9946  9944  9952  9955     9 
 9944  9946  9947  9948     9 
 9944  9946  9947  9949     9 
 9946  9947  9949  9950     9 
 9946  9947  9949  9951     9 
 9946  9947  9949  9961     9 
 9948  9947  9949  9950     9 
 9948  9947  9949  9951     9 
 9948  9947  9949  9961     9 
 9947  9949  9961  9962     9 
 9947  9949  9961  9963     9 
 9947  9949  9961  9964     9 
 9950  9949  9961  9962     9 
 9950  9949  9961  9963     9 
 9950  9949  9961  9964     9 
 9951  9949  9961  9962     9 
 9951  9949  9961  9963     9 
 9951  9949  9961  9964     9 
 9944  9952  9955  9956     9 
 9953  9952  9955  9956     9 
 9954  9952  9955  9956     9 
 9952  9955  9956  9957     9 
 9952  9955  9956  9958     9 
 9955  9956  9958  9959     9 
 9955  9956  9958  9960     9 
 9955  9956  9958 10008     9 
 9957  9956  9958  9959     9 
 9957  9956  9958  9960     9 
 9957  9956  9958 10008     9 
 9956  9958 10008 10009     9 
 9956  9958 10008 10010     9 
 9956  9958 10008 10011     9 
 9959  9958 10008 10009     9 
 9959  9958 10008 10010     9 
 9959  9958 10008 10011     9 
 9960  9958 10008 10009     9 
 9960  9958 10008 10010     9 
 9960  9958 10008 10011     9 
 9949  9961  9964  9965     9 
 9949  9961  9964  9966     9 
 9949  9961  9964  9967     9 
 9962  9961  9964  9965     9 
 9962  9961  9964  9966     9 
 9962  9961  9964  9967     9 
 9963  9961  9964  9965     9 
 9963  9961  9964  9966     9 
 9963  9961  9964  9967     9 
 9961  9964  9967  9968     9 
 9961  9964  9967  9969     9 
 9961  9964  9967  9970     9 
 9965  9964  9967  9968     9 
 9965  9964  9967  9969     9 
 9965  9964  9967  9970     9 
 9966  9964  9967  9968     9 
 9966  9964  9967  9969     9 
 9966  9964  9967  9970     9 
 9964  9967  9970  9971     9 
 9964  9967  9970  9972     9 
 9964  9967  9970  9973     9 
 9968  9967  9970  9971     9 
 9968  9967  9970  9972     9 
 9968  9967  9970  9973     9 
 9969  9967  9970  9971     9 
 9969  9967  9970  9972     9 
 9969  9967  9970  9973     9 
 9967  9970  9973  9974     9 
 9967  9970  9973  9975     9 
 9967  9970  9973  9976     9 
 9971  9970  9973  9974     9 
 9971  9970  9973  9975     9 
 9971  9970  9973  9976     9 
 9972  9970  9973  9974     9 
 9972  9970  9973  9975     9 
 9972  9970  9973  9976     9 
 9970  9973  9976  9977     9 
 9970  9973  9976  9978     9 
 9970  9973  9976  9979     9 
 9974  9973  9976  9977     9 
 9974  9973  9976  9978     9 
 9974  9973  9976  9979     9 
 9975  9973  9976  9977     9 
 9975  9973  9976  9978     9 
 9975  9973  9976  9979     9 
 9973  9976  9979  9980     9 
 9973  9976  9979  9981     9 
 9977  9976  9979  9980     9 
 9977  9976  9979  9981     9 
 9978  9976  9979  9980     9 
 9978  9976  9979  9981     9 
 9976  9979  9981  9982     9 
 9976  9979  9981  9983     9 
 9980  9979  9981  9982     9 
 9980  9979  9981  9983     9 
 9979  9981  9983  9984     9 
 9979  9981  9983  9985     9 
 9979  9981  9983  9986     9 
 9982  9981  9983  9984     9 
 9982  9981  9983  9985     9 
 9982  9981  9983  9986     9 
 9981  9983  9986  9987     9 
 9981  9983  9986  9988     9 
 9981  9983  9986  9989     9 
 9984  9983  9986  9987     9 
 9984  9983  9986  9988     9 
 9984  9983  9986  9989     9 
 9985  9983  9986  9987     9 
 9985  9983  9986  9988     9 
 9985  9983  9986  9989     9 
 9983  9986  9989  9990     9 
 9983  9986  9989  9991     9 
 9983  9986  9989  9992     9 
 9987  9986  9989  9990     9 
 9987  9986  9989  9991     9 
 9987  9986  9989  9992     9 
 9988  9986  9989  9990     9 
 9988  9986  9989  9991     9 
 9988  9986  9989  9992     9 
 9986  9989  9992  9993     9 
 9986  9989  9992  9994     9 
 9986  9989  9992  9995     9 
 9990  9989  9992  9993     9 
 9990  9989  9992  9994     9 
 9990  9989  9992  9995     9 
 9991  9989  9992  9993     9 
 9991  9989  9992  9994     9 
 9991  9989  9992  9995     9 
 9989  9992  9995  9996     9 
 9989  9992  9995  9997     9 
 9989  9992  9995  9998     9 
 9993  9992  9995  9996     9 
 9993  9992  9995  9997     9 
 9993  9992  9995  9998     9 
 9994  9992  9995  9996     9 
 9994  9992  9995  9997     9 
 9994  9992  9995  9998     9 
 9992  9995  9998  9999     9 
 9992  9995  9998 10000     9 
 9992  9995  9998 10001     9 
 9996  9995  9998  9999     9 
 9996  9995  9998 10000     9 
 9996  9995  9998 10001     9 
 9997  9995  9998  9999     9 
 9997  9995  9998 10000     9 
 9997  9995  9998 10001     9 
 9995  9998 10001 10002     9 
 9995  9998 10001 10003     9 
 9995  9998 10001 10004     9 
 9999  9998 10001 10002     9 
 9999  9998 10001 10003     9 
 9999  9998 10001 10004     9 
10000  9998 10001 10002     9 
10000  9998 10001 10003     9 
10000  9998 10001 10004     9 
 9998 10001 10004 10005     9 
 9998 10001 10004 10006     9 
 9998 10001 10004 10007     9 
10002 10001 10004 10005     9 
10002 10001 10004 10006     9 
10002 10001 10004 10007     9 
10003 10001 10004 10005     9 
10003 10001 10004 10006     9 
10003 10001 10004 10007     9 
 9958 10008 10011 10012     9 
 9958 10008 10011 10013     9 
 9958 10008 10011 10014     9 
10009 10008 10011 10012     9 
10009 10008 10011 10013     9 
10009 10008 10011 10014     9 
10010 10008 10011 10012     9 
10010 10008 10011 10013     9 
10010 10008 10011 10014     9 
10008 10011 10014 10015     9 
10008 10011 10014 10016     9 
10008 10011 10014 10017     9 
10012 10011 10014 10015     9 
10012 10011 10014 10016     9 
10012 10011 10014 10017     9 
10013 10011 10014 10015     9 
10013 10011 10014 10016     9 
10013 10011 10014 10017     9 
10011 10014 10017 10018     9 
10011 10014 10017 10019     9 
10011 10014 10017 10020     9 
10015 10014 10017 10018     9 
10015 10014 10017 10019     9 
10015 10014 10017 10020     9 
10016 10014 10017 10018     9 
10016 10014 10017 10019     9 
10016 10014 10017 10020     9 
10014 10017 10020 10021     9 
10014 10017 10020 10022     9 
10014 10017 10020 10023     9 
10018 10017 10020 10021     9 
10018 10017 10020 10022     9 
10018 10017 10020 10023     9 
10019 10017 10020 10021     9 
10019 10017 10020 10022     9 
10019 10017 10020 10023     9 
10017 10020 10023 10024     9 
10017 10020 10023 10025     9 
10017 10020 10023 10026     9 
10021 10020 10023 10024     9 
10021 10020 10023 10025     9 
10021 10020 10023 10026     9 
10022 10020 10023 10024     9 
10022 10020 10023 10025     9 
10022 10020 10023 10026     9 
10020 10023 10026 10027     9 
10020 10023 10026 10028     9 
10020 10023 10026 10029     9 
10024 10023 10026 10027     9 
10024 10023 10026 10028     9 
10024 10023 10026 10029     9 
10025 10023 10026 10027     9 
10025 10023 10026 10028     9 
10025 10023 10026 10029     9 
10023 10026 10029 10030     9 
10023 10026 10029 10031     9 
10023 10026 10029 10032     9 
10027 10026 10029 10030     9 
10027 10026 10029 10031     9 
10027 10026 10029 10032     9 
10028 10026 10029 10030     9 
10028 10026 10029 10031     9 
10028 10026 10029 10032     9 
10026 10029 10032 10033     9 
10026 10029 10032 10034     9 
10026 10029 10032 10035     9 
10030 10029 10032 10033     9 
10030 10029 10032 10034     9 
10030 10029 10032 10035     9 
10031 10029 10032 10033     9 
10031 10029 10032 10034     9 
10031 10029 10032 10035     9 
10029 10032 10035 10036     9 
10029 10032 10035 10037     9 
10029 10032 10035 10038     9 
10033 10032 10035 10036     9 
10033 10032 10035 10037     9 
10033 10032 10035 10038     9 
10034 10032 10035 10036     9 
10034 10032 10035 10037     9 
10034 10032 10035 10038     9 
10032 10035 10038 10039     9 
10032 10035 10038 10040     9 
10032 10035 10038 10041     9 
10036 10035 10038 10039     9 
10036 10035 10038 10040     9 
10036 10035 10038 10041     9 
10037 10035 10038 10039     9 
10037 10035 10038 10040     9 
10037 10035 10038 10041     9 
10035 10038 10041 10042     9 
10035 10038 10041 10043     9 
10035 10038 10041 10044     9 
10039 10038 10041 10042     9 
10039 10038 10041 10043     9 
10039 10038 10041 10044     9 
10040 10038 10041 10042     9 
10040 10038 10041 10043     9 
10040 10038 10041 10044     9 
10038 10041 10044 10045     9 
10038 10041 10044 10046     9 
10038 10041 10044 10047     9 
10042 10041 10044 10045     9 
10042 10041 10044 10046     9 
10042 10041 10044 10047     9 
10043 10041 10044 10045     9 
10043 10041 10044 10046     9 
10043 10041 10044 10047     9 
10041 10044 10047 10048     9 
10041 10044 10047 10049     9 
10041 10044 10047 10050     9 
10045 10044 10047 10048     9 
10045 10044 10047 10049     9 
10045 10044 10047 10050     9 
10046 10044 10047 10048     9 
10046 10044 10047 10049     9 
10046 10044 10047 10050     9 
10055 10051 10052 10053     9 
10055 10051 10052 10054     9 
10055 10051 10052 10067     9 
10059 10051 10052 10053     9 
10059 10051 10052 10054     9 
10059 10051 10052 10067     9 
10063 10051 10052 10053     9 
10063 10051 10052 10054     9 
10063 10051 10052 10067     9 
10052 10051 10055 10056     9 
10052 10051 10055 10057     9 
10052 10051 10055 10058     9 
10059 10051 10055 10056     9 
10059 10051 10055 10057     9 
10059 10051 10055 10058     9 
10063 10051 10055 10056     9 
10063 10051 10055 10057     9 
10063 10051 10055 10058     9 
10052 10051 10059 10060     9 
10052 10051 10059 10061     9 
10052 10051 10059 10062     9 
10055 10051 10059 10060     9 
10055 10051 10059 10061     9 
10055 10051 10059 10062     9 
10063 10051 10059 10060     9 
10063 10051 10059 10061     9 
10063 10051 10059 10062     9 
10052 10051 10063 10064     9 
10052 10051 10063 10065     9 
10052 10051 10063 10066     9 
10055 10051 10063 10064     9 
10055 10051 10063 10065     9 
10055 10051 10063 10066     9 
10059 10051 10063 10064     9 
10059 10051 10063 10065     9 
10059 10051 10063 10066     9 
10051 10052 10067 10068     9 
10051 10052 10067 10069     9 
10051 10052 10067 10073     9 
10053 10052 10067 10068     9 
10053 10052 10067 10069     9 
10053 10052 10067 10073     9 
10054 10052 10067 10068     9 
10054 10052 10067 10069     9 
10054 10052 10067 10073     9 
10052 10067 10073 10070     9 
10068 10067 10073 10070     9 
10069 10067 10073 10070     9 
10071 10070 10073 10067     9 
10072 10070 10073 10067     9 
10074 10070 10073 10067     9 
10071 10070 10074 10075     9 
10072 10070 10074 10075     9 
10073 10070 10074 10075     9 
10070 10074 10075 10076     9 
10070 10074 10075 10077     9 
10070 10074 10075 10078     9 
10074 10075 10078 10079     9 
10074 10075 10078 10080     9 
10074 10075 10078 10086     9 
10076 10075 10078 10079     9 
10076 10075 10078 10080     9 
10076 10075 10078 10086     9 
10077 10075 10078 10079     9 
10077 10075 10078 10080     9 
10077 10075 10078 10086     9 
10075 10078 10080 10081     9 
10079 10078 10080 10081     9 
10086 10078 10080 10081     9 
10075 10078 10086 10087     9 
10075 10078 10086 10088     9 
10075 10078 10086 10089     9 
10079 10078 10086 10087     9 
10079 10078 10086 10088     9 
10079 10078 10086 10089     9 
10080 10078 10086 10087     9 
10080 10078 10086 10088     9 
10080 10078 10086 10089     9 
10078 10080 10081 10082     9 
10078 10080 10081 10083     9 
10080 10081 10083 10084     9 
10080 10081 10083 10085     9 
10080 10081 10083 10095     9 
10082 10081 10083 10084     9 
10082 10081 10083 10085     9 
10082 10081 10083 10095     9 
10081 10083 10095 10096     9 
10081 10083 10095 10097     9 
10081 10083 10095 10098     9 
10084 10083 10095 10096     9 
10084 10083 10095 10097     9 
10084 10083 10095 10098     9 
10085 10083 10095 10096     9 
10085 10083 10095 10097     9 
10085 10083 10095 10098     9 
10078 10086 10089 10090     9 
10087 10086 10089 10090     9 
10088 10086 10089 10090     9 
10086 10089 10090 10091     9 
10086 10089 10090 10092     9 
10089 10090 10092 10093     9 
10089 10090 10092 10094     9 
10089 10090 10092 10142     9 
10091 10090 10092 10093     9 
10091 10090 10092 10094     9 
10091 10090 10092 10142     9 
10090 10092 10142 10143     9 
10090 10092 10142 10144     9 
10090 10092 10142 10145     9 
10093 10092 10142 10143     9 
10093 10092 10142 10144     9 
10093 10092 10142 10145     9 
10094 10092 10142 10143     9 
10094 10092 10142 10144     9 
10094 10092 10142 10145     9 
10083 10095 10098 10099     9 
10083 10095 10098 10100     9 
10083 10095 10098 10101     9 
10096 10095 10098 10099     9 
10096 10095 10098 10100     9 
10096 10095 10098 10101     9 
10097 10095 10098 10099     9 
10097 10095 10098 10100     9 
10097 10095 10098 10101     9 
10095 10098 10101 10102     9 
10095 10098 10101 10103     9 
10095 10098 10101 10104     9 
10099 10098 10101 10102     9 
10099 10098 10101 10103     9 
10099 10098 10101 10104     9 
10100 10098 10101 10102     9 
10100 10098 10101 10103     9 
10100 10098 10101 10104     9 
10098 10101 10104 10105     9 
10098 10101 10104 10106     9 
10098 10101 10104 10107     9 
10102 10101 10104 10105     9 
10102 10101 10104 10106     9 
10102 10101 10104 10107     9 
10103 10101 10104 10105     9 
10103 10101 10104 10106     9 
10103 10101 10104 10107     9 
10101 10104 10107 10108     9 
10101 10104 10107 10109     9 
10101 10104 10107 10110     9 
10105 10104 10107 10108     9 
10105 10104 10107 10109     9 
10105 10104 10107 10110     9 
10106 10104 10107 10108     9 
10106 10104 10107 10109     9 
10106 10104 10107 10110     9 
10104 10107 10110 10111     9 
10104 10107 10110 10112     9 
10104 10107 10110 10113     9 
10108 10107 10110 10111     9 
10108 10107 10110 10112     9 
10108 10107 10110 10113     9 
10109 10107 10110 10111     9 
10109 10107 10110 10112     9 
10109 10107 10110 10113     9 
10107 10110 10113 10114     9 
10107 10110 10113 10115     9 
10111 10110 10113 10114     9 
10111 10110 10113 10115     9 
10112 10110 10113 10114     9 
10112 10110 10113 10115     9 
10110 10113 10115 10116     9 
10110 10113 10115 10117     9 
10114 10113 10115 10116     9 
10114 10113 10115 10117     9 
10113 10115 10117 10118     9 
10113 10115 10117 10119     9 
10113 10115 10117 10120     9 
10116 10115 10117 10118     9 
10116 10115 10117 10119     9 
10116 10115 10117 10120     9 
10115 10117 10120 10121     9 
10115 10117 10120 10122     9 
10115 10117 10120 10123     9 
10118 10117 10120 10121     9 
10118 10117 10120 10122     9 
10118 10117 10120 10123     9 
10119 10117 10120 10121     9 
10119 10117 10120 10122     9 
10119 10117 10120 10123     9 
10117 10120 10123 10124     9 
10117 10120 10123 10125     9 
10117 10120 10123 10126     9 
10121 10120 10123 10124     9 
10121 10120 10123 10125     9 
10121 10120 10123 10126     9 
10122 10120 10123 10124     9 
10122 10120 10123 10125     9 
10122 10120 10123 10126     9 
10120 10123 10126 10127     9 
10120 10123 10126 10128     9 
10120 10123 10126 10129     9 
10124 10123 10126 10127     9 
10124 10123 10126 10128     9 
10124 10123 10126 10129     9 
10125 10123 10126 10127     9 
10125 10123 10126 10128     9 
10125 10123 10126 10129     9 
10123 10126 10129 10130     9 
10123 10126 10129 10131     9 
10123 10126 10129 10132     9 
10127 10126 10129 10130     9 
10127 10126 10129 10131     9 
10127 10126 10129 10132     9 
10128 10126 10129 10130     9 
10128 10126 10129 10131     9 
10128 10126 10129 10132     9 
10126 10129 10132 10133     9 
10126 10129 10132 10134     9 
10126 10129 10132 10135     9 
10130 10129 10132 10133     9 
10130 10129 10132 10134     9 
10130 10129 10132 10135     9 
10131 10129 10132 10133     9 
10131 10129 10132 10134     9 
10131 10129 10132 10135     9 
10129 10132 10135 10136     9 
10129 10132 10135 10137     9 
10129 10132 10135 10138     9 
10133 10132 10135 10136     9 
10133 10132 10135 10137     9 
10133 10132 10135 10138     9 
10134 10132 10135 10136     9 
10134 10132 10135 10137     9 
10134 10132 10135 10138     9 
10132 10135 10138 10139     9 
10132 10135 10138 10140     9 
10132 10135 10138 10141     9 
10136 10135 10138 10139     9 
10136 10135 10138 10140     9 
10136 10135 10138 10141     9 
10137 10135 10138 10139     9 
10137 10135 10138 10140     9 
10137 10135 10138 10141     9 
10092 10142 10145 10146     9 
10092 10142 10145 10147     9 
10092 10142 10145 10148     9 
10143 10142 10145 10146     9 
10143 10142 10145 10147     9 
10143 10142 10145 10148     9 
10144 10142 10145 10146     9 
10144 10142 10145 10147     9 
10144 10142 10145 10148     9 
10142 10145 10148 10149     9 
10142 10145 10148 10150     9 
10142 10145 10148 10151     9 
10146 10145 10148 10149     9 
10146 10145 10148 10150     9 
10146 10145 10148 10151     9 
10147 10145 10148 10149     9 
10147 10145 10148 10150     9 
10147 10145 10148 10151     9 
10145 10148 10151 10152     9 
10145 10148 10151 10153     9 
10145 10148 10151 10154     9 
10149 10148 10151 10152     9 
10149 10148 10151 10153     9 
10149 10148 10151 10154     9 
10150 10148 10151 10152     9 
10150 10148 10151 10153     9 
10150 10148 10151 10154     9 
10148 10151 10154 10155     9 
10148 10151 10154 10156     9 
10148 10151 10154 10157     9 
10152 10151 10154 10155     9 
10152 10151 10154 10156     9 
10152 10151 10154 10157     9 
10153 10151 10154 10155     9 
10153 10151 10154 10156     9 
10153 10151 10154 10157     9 
10151 10154 10157 10158     9 
10151 10154 10157 10159     9 
10151 10154 10157 10160     9 
10155 10154 10157 10158     9 
10155 10154 10157 10159     9 
10155 10154 10157 10160     9 
10156 10154 10157 10158     9 
10156 10154 10157 10159     9 
10156 10154 10157 10160     9 
10154 10157 10160 10161     9 
10154 10157 10160 10162     9 
10154 10157 10160 10163     9 
10158 10157 10160 10161     9 
10158 10157 10160 10162     9 
10158 10157 10160 10163     9 
10159 10157 10160 10161     9 
10159 10157 10160 10162     9 
10159 10157 10160 10163     9 
10157 10160 10163 10164     9 
10157 10160 10163 10165     9 
10157 10160 10163 10166     9 
10161 10160 10163 10164     9 
10161 10160 10163 10165     9 
10161 10160 10163 10166     9 
10162 10160 10163 10164     9 
10162 10160 10163 10165     9 
10162 10160 10163 10166     9 
10160 10163 10166 10167     9 
10160 10163 10166 10168     9 
10160 10163 10166 10169     9 
10164 10163 10166 10167     9 
10164 10163 10166 10168     9 
10164 10163 10166 10169     9 
10165 10163 10166 10167     9 
10165 10163 10166 10168     9 
10165 10163 10166 10169     9 
10163 10166 10169 10170     9 
10163 10166 10169 10171     9 
10163 10166 10169 10172     9 
10167 10166 10169 10170     9 
10167 10166 10169 10171     9 
10167 10166 10169 10172     9 
10168 10166 10169 10170     9 
10168 10166 10169 10171     9 
10168 10166 10169 10172     9 
10166 10169 10172 10173     9 
10166 10169 10172 10174     9 
10166 10169 10172 10175     9 
10170 10169 10172 10173     9 
10170 10169 10172 10174     9 
10170 10169 10172 10175     9 
10171 10169 10172 10173     9 
10171 10169 10172 10174     9 
10171 10169 10172 10175     9 
10169 10172 10175 10176     9 
10169 10172 10175 10177     9 
10169 10172 10175 10178     9 
10173 10172 10175 10176     9 
10173 10172 10175 10177     9 
10173 10172 10175 10178     9 
10174 10172 10175 10176     9 
10174 10172 10175 10177     9 
10174 10172 10175 10178     9 
10172 10175 10178 10179     9 
10172 10175 10178 10180     9 
10172 10175 10178 10181     9 
10176 10175 10178 10179     9 
10176 10175 10178 10180     9 
10176 10175 10178 10181     9 
10177 10175 10178 10179     9 
10177 10175 10178 10180     9 
10177 10175 10178 10181     9 
10175 10178 10181 10182     9 
10175 10178 10181 10183     9 
10175 10178 10181 10184     9 
10179 10178 10181 10182     9 
10179 10178 10181 10183     9 
10179 10178 10181 10184     9 
10180 10178 10181 10182     9 
10180 10178 10181 10183     9 
10180 10178 10181 10184     9 
10189 10185 10186 10187     9 
10189 10185 10186 10188     9 
10189 10185 10186 10201     9 
10193 10185 10186 10187     9 
10193 10185 10186 10188     9 
10193 10185 10186 10201     9 
10197 10185 10186 10187     9 
10197 10185 10186 10188     9 
10197 10185 10186 10201     9 
10186 10185 10189 10190     9 
10186 10185 10189 10191     9 
10186 10185 10189 10192     9 
10193 10185 10189 10190     9 
10193 10185 10189 10191     9 
10193 10185 10189 10192     9 
10197 10185 10189 10190     9 
10197 10185 10189 10191     9 
10197 10185 10189 10192     9 
10186 10185 10193 10194     9 
10186 10185 10193 10195     9 
10186 10185 10193 10196     9 
10189 10185 10193 10194     9 
10189 10185 10193 10195     9 
10189 10185 10193 10196     9 
10197 10185 10193 10194     9 
10197 10185 10193 10195     9 
10197 10185 10193 10196     9 
10186 10185 10197 10198     9 
10186 10185 10197 10199     9 
10186 10185 10197 10200     9 
10189 10185 10197 10198     9 
10189 10185 10197 10199     9 
10189 10185 10197 10200     9 
10193 10185 10197 10198     9 
10193 10185 10197 10199     9 
10193 10185 10197 10200     9 
10185 10186 10201 10202     9 
10185 10186 10201 10203     9 
10185 10186 10201 10207     9 
10187 10186 10201 10202     9 
10187 10186 10201 10203     9 
10187 10186 10201 10207     9 
10188 10186 10201 10202     9 
10188 10186 10201 10203     9 
10188 10186 10201 10207     9 
10186 10201 10207 10204     9 
10202 10201 10207 10204     9 
10203 10201 10207 10204     9 
10205 10204 10207 10201     9 
10206 10204 10207 10201     9 
10208 10204 10207 10201     9 
10205 10204 10208 10209     9 
10206 10204 10208 10209     9 
10207 10204 10208 10209     9 
10204 10208 10209 10210     9 
10204 10208 10209 10211     9 
10204 10208 10209 10212     9 
10208 10209 10212 10213     9 
10208 10209 10212 10214     9 
10208 10209 10212 10220     9 
10210 10209 10212 10213     9 
10210 10209 10212 10214     9 
10210 10209 10212 10220     9 
10211 10209 10212 10213     9 
10211 10209 10212 10214     9 
10211 10209 10212 10220     9 
10209 10212 10214 10215     9 
10213 10212 10214 10215     9 
10220 10212 10214 10215     9 
10209 10212 10220 10221     9 
10209 10212 10220 10222     9 
10209 10212 10220 10223     9 
10213 10212 10220 10221     9 
10213 10212 10220 10222     9 
10213 10212 10220 10223     9 
10214 10212 10220 10221     9 
10214 10212 10220 10222     9 
10214 10212 10220 10223     9 
10212 10214 10215 10216     9 
10212 10214 10215 10217     9 
10214 10215 10217 10218     9 
10214 10215 10217 10219     9 
10214 10215 10217 10229     9 
10216 10215 10217 10218     9 
10216 10215 10217 10219     9 
10216 10215 10217 10229     9 
10215 10217 10229 10230     9 
10215 10217 10229 10231     9 
10215 10217 10229 10232     9 
10218 10217 10229 10230     9 
10218 10217 10229 10231     9 
10218 10217 10229 10232     9 
10219 10217 10229 10230     9 
10219 10217 10229 10231     9 
10219 10217 10229 10232     9 
10212 10220 10223 10224     9 
10221 10220 10223 10224     9 
10222 10220 10223 10224     9 
10220 10223 10224 10225     9 
10220 10223 10224 10226     9 
10223 10224 10226 10227     9 
10223 10224 10226 10228     9 
10223 10224 10226 10276     9 
10225 10224 10226 10227     9 
10225 10224 10226 10228     9 
10225 10224 10226 10276     9 
10224 10226 10276 10277     9 
10224 10226 10276 10278     9 
10224 10226 10276 10279     9 
10227 10226 10276 10277     9 
10227 10226 10276 10278     9 
10227 10226 10276 10279     9 
10228 10226 10276 10277     9 
10228 10226 10276 10278     9 
10228 10226 10276 10279     9 
10217 10229 10232 10233     9 
10217 10229 10232 10234     9 
10217 10229 10232 10235     9 
10230 10229 10232 10233     9 
10230 10229 10232 10234     9 
10230 10229 10232 10235     9 
10231 10229 10232 10233     9 
10231 10229 10232 10234     9 
10231 10229 10232 10235     9 
10229 10232 10235 10236     9 
10229 10232 10235 10237     9 
10229 10232 10235 10238     9 
10233 10232 10235 10236     9 
10233 10232 10235 10237     9 
10233 10232 10235 10238     9 
10234 10232 10235 10236     9 
10234 10232 10235 10237     9 
10234 10232 10235 10238     9 
10232 10235 10238 10239     9 
10232 10235 10238 10240     9 
10232 10235 10238 10241     9 
10236 10235 10238 10239     9 
10236 10235 10238 10240     9 
10236 10235 10238 10241     9 
10237 10235 10238 10239     9 
10237 10235 10238 10240     9 
10237 10235 10238 10241     9 
10235 10238 10241 10242     9 
10235 10238 10241 10243     9 
10235 10238 10241 10244     9 
10239 10238 10241 10242     9 
10239 10238 10241 10243     9 
10239 10238 10241 10244     9 
10240 10238 10241 10242     9 
10240 10238 10241 10243     9 
10240 10238 10241 10244     9 
10238 10241 10244 10245     9 
10238 10241 10244 10246     9 
10238 10241 10244 10247     9 
10242 10241 10244 10245     9 
10242 10241 10244 10246     9 
10242 10241 10244 10247     9 
10243 10241 10244 10245     9 
10243 10241 10244 10246     9 
10243 10241 10244 10247     9 
10241 10244 10247 10248     9 
10241 10244 10247 10249     9 
10245 10244 10247 10248     9 
10245 10244 10247 10249     9 
10246 10244 10247 10248     9 
10246 10244 10247 10249     9 
10244 10247 10249 10250     9 
10244 10247 10249 10251     9 
10248 10247 10249 10250     9 
10248 10247 10249 10251     9 
10247 10249 10251 10252     9 
10247 10249 10251 10253     9 
10247 10249 10251 10254     9 
10250 10249 10251 10252     9 
10250 10249 10251 10253     9 
10250 10249 10251 10254     9 
10249 10251 10254 10255     9 
10249 10251 10254 10256     9 
10249 10251 10254 10257     9 
10252 10251 10254 10255     9 
10252 10251 10254 10256     9 
10252 10251 10254 10257     9 
10253 10251 10254 10255     9 
10253 10251 10254 10256     9 
10253 10251 10254 10257     9 
10251 10254 10257 10258     9 
10251 10254 10257 10259     9 
10251 10254 10257 10260     9 
10255 10254 10257 10258     9 
10255 10254 10257 10259     9 
10255 10254 10257 10260     9 
10256 10254 10257 10258     9 
10256 10254 10257 10259     9 
10256 10254 10257 10260     9 
10254 10257 10260 10261     9 
10254 10257 10260 10262     9 
10254 10257 10260 10263     9 
10258 10257 10260 10261     9 
10258 10257 10260 10262     9 
10258 10257 10260 10263     9 
10259 10257 10260 10261     9 
10259 10257 10260 10262     9 
10259 10257 10260 10263     9 
10257 10260 10263 10264     9 
10257 10260 10263 10265     9 
10257 10260 10263 10266     9 
10261 10260 10263 10264     9 
10261 10260 10263 10265     9 
10261 10260 10263 10266     9 
10262 10260 10263 10264     9 
10262 10260 10263 10265     9 
10262 10260 10263 10266     9 
10260 10263 10266 10267     9 
10260 10263 10266 10268     9 
10260 10263 10266 10269     9 
10264 10263 10266 10267     9 
10264 10263 10266 10268     9 
10264 10263 10266 10269     9 
10265 10263 10266 10267     9 
10265 10263 10266 10268     9 
10265 10263 10266 10269     9 
10263 10266 10269 10270     9 
10263 10266 10269 10271     9 
10263 10266 10269 10272     9 
10267 10266 10269 10270     9 
10267 10266 10269 10271     9 
10267 10266 10269 10272     9 
10268 10266 10269 10270     9 
10268 10266 10269 10271     9 
10268 10266 10269 10272     9 
10266 10269 10272 10273     9 
10266 10269 10272 10274     9 
10266 10269 10272 10275     9 
10270 10269 10272 10273     9 
10270 10269 10272 10274     9 
10270 10269 10272 10275     9 
10271 10269 10272 10273     9 
10271 10269 10272 10274     9 
10271 10269 10272 10275     9 
10226 10276 10279 10280     9 
10226 10276 10279 10281     9 
10226 10276 10279 10282     9 
10277 10276 10279 10280     9 
10277 10276 10279 10281     9 
10277 10276 10279 10282     9 
10278 10276 10279 10280     9 
10278 10276 10279 10281     9 
10278 10276 10279 10282     9 
10276 10279 10282 10283     9 
10276 10279 10282 10284     9 
10276 10279 10282 10285     9 
10280 10279 10282 10283     9 
10280 10279 10282 10284     9 
10280 10279 10282 10285     9 
10281 10279 10282 10283     9 
10281 10279 10282 10284     9 
10281 10279 10282 10285     9 
10279 10282 10285 10286     9 
10279 10282 10285 10287     9 
10279 10282 10285 10288     9 
10283 10282 10285 10286     9 
10283 10282 10285 10287     9 
10283 10282 10285 10288     9 
10284 10282 10285 10286     9 
10284 10282 10285 10287     9 
10284 10282 10285 10288     9 
10282 10285 10288 10289     9 
10282 10285 10288 10290     9 
10282 10285 10288 10291     9 
10286 10285 10288 10289     9 
10286 10285 10288 10290     9 
10286 10285 10288 10291     9 
10287 10285 10288 10289     9 
10287 10285 10288 10290     9 
10287 10285 10288 10291     9 
10285 10288 10291 10292     9 
10285 10288 10291 10293     9 
10285 10288 10291 10294     9 
10289 10288 10291 10292     9 
10289 10288 10291 10293     9 
10289 10288 10291 10294     9 
10290 10288 10291 10292     9 
10290 10288 10291 10293     9 
10290 10288 10291 10294     9 
10288 10291 10294 10295     9 
10288 10291 10294 10296     9 
10288 10291 10294 10297     9 
10292 10291 10294 10295     9 
10292 10291 10294 10296     9 
10292 10291 10294 10297     9 
10293 10291 10294 10295     9 
10293 10291 10294 10296     9 
10293 10291 10294 10297     9 
10291 10294 10297 10298     9 
10291 10294 10297 10299     9 
10291 10294 10297 10300     9 
10295 10294 10297 10298     9 
10295 10294 10297 10299     9 
10295 10294 10297 10300     9 
10296 10294 10297 10298     9 
10296 10294 10297 10299     9 
10296 10294 10297 10300     9 
10294 10297 10300 10301     9 
10294 10297 10300 10302     9 
10294 10297 10300 10303     9 
10298 10297 10300 10301     9 
10298 10297 10300 10302     9 
10298 10297 10300 10303     9 
10299 10297 10300 10301     9 
10299 10297 10300 10302     9 
10299 10297 10300 10303     9 
10297 10300 10303 10304     9 
10297 10300 10303 10305     9 
10297 10300 10303 10306     9 
10301 10300 10303 10304     9 
10301 10300 10303 10305     9 
10301 10300 10303 10306     9 
10302 10300 10303 10304     9 
10302 10300 10303 10305     9 
10302 10300 10303 10306     9 
10300 10303 10306 10307     9 
10300 10303 10306 10308     9 
10300 10303 10306 10309     9 
10304 10303 10306 10307     9 
10304 10303 10306 10308     9 
10304 10303 10306 10309     9 
10305 10303 10306 10307     9 
10305 10303 10306 10308     9 
10305 10303 10306 10309     9 
10303 10306 10309 10310     9 
10303 10306 10309 10311     9 
10303 10306 10309 10312     9 
10307 10306 10309 10310     9 
10307 10306 10309 10311     9 
10307 10306 10309 10312     9 
10308 10306 10309 10310     9 
10308 10306 10309 10311     9 
10308 10306 10309 10312     9 
10306 10309 10312 10313     9 
10306 10309 10312 10314     9 
10306 10309 10312 10315     9 
10310 10309 10312 10313     9 
10310 10309 10312 10314     9 
10310 10309 10312 10315     9 
10311 10309 10312 10313     9 
10311 10309 10312 10314     9 
10311 10309 10312 10315     9 
10309 10312 10315 10316     9 
10309 10312 10315 10317     9 
10309 10312 10315 10318     9 
10313 10312 10315 10316     9 
10313 10312 10315 10317     9 
10313 10312 10315 10318     9 
10314 10312 10315 10316     9 
10314 10312 10315 10317     9 
10314 10312 10315 10318     9 
10323 10319 10320 10321     9 
10323 10319 10320 10322     9 
10323 10319 10320 10335     9 
10327 10319 10320 10321     9 
10327 10319 10320 10322     9 
10327 10319 10320 10335     9 
10331 10319 10320 10321     9 
10331 10319 10320 10322     9 
10331 10319 10320 10335     9 
10320 10319 10323 10324     9 
10320 10319 10323 10325     9 
10320 10319 10323 10326     9 
10327 10319 10323 10324     9 
10327 10319 10323 10325     9 
10327 10319 10323 10326     9 
10331 10319 10323 10324     9 
10331 10319 10323 10325     9 
10331 10319 10323 10326     9 
10320 10319 10327 10328     9 
10320 10319 10327 10329     9 
10320 10319 10327 10330     9 
10323 10319 10327 10328     9 
10323 10319 10327 10329     9 
10323 10319 10327 10330     9 
10331 10319 10327 10328     9 
10331 10319 10327 10329     9 
10331 10319 10327 10330     9 
10320 10319 10331 10332     9 
10320 10319 10331 10333     9 
10320 10319 10331 10334     9 
10323 10319 10331 10332     9 
10323 10319 10331 10333     9 
10323 10319 10331 10334     9 
10327 10319 10331 10332     9 
10327 10319 10331 10333     9 
10327 10319 10331 10334     9 
10319 10320 10335 10336     9 
10319 10320 10335 10337     9 
10319 10320 10335 10341     9 
10321 10320 10335 10336     9 
10321 10320 10335 10337     9 
10321 10320 10335 10341     9 
10322 10320 10335 10336     9 
10322 10320 10335 10337     9 
10322 10320 10335 10341     9 
10320 10335 10341 10338     9 
10336 10335 10341 10338     9 
10337 10335 10341 10338     9 
10339 10338 10341 10335     9 
10340 10338 10341 10335     9 
10342 10338 10341 10335     9 
10339 10338 10342 10343     9 
10340 10338 10342 10343     9 
10341 10338 10342 10343     9 
10338 10342 10343 10344     9 
10338 10342 10343 10345     9 
10338 10342 10343 10346     9 
10342 10343 10346 10347     9 
10342 10343 10346 10348     9 
10342 10343 10346 10354     9 
10344 10343 10346 10347     9 
10344 10343 10346 10348     9 
10344 10343 10346 10354     9 
10345 10343 10346 10347     9 
10345 10343 10346 10348     9 
10345 10343 10346 10354     9 
10343 10346 10348 10349     9 
10347 10346 10348 10349     9 
10354 10346 10348 10349     9 
10343 10346 10354 10355     9 
10343 10346 10354 10356     9 
10343 10346 10354 10357     9 
10347 10346 10354 10355     9 
10347 10346 10354 10356     9 
10347 10346 10354 10357     9 
10348 10346 10354 10355     9 
10348 10346 10354 10356     9 
10348 10346 10354 10357     9 
10346 10348 10349 10350     9 
10346 10348 10349 10351     9 
10348 10349 10351 10352     9 
10348 10349 10351 10353     9 
10348 10349 10351 10363     9 
10350 10349 10351 10352     9 
10350 10349 10351 10353     9 
10350 10349 10351 10363     9 
10349 10351 10363 10364     9 
10349 10351 10363 10365     9 
10349 10351 10363 10366     9 
10352 10351 10363 10364     9 
10352 10351 10363 10365     9 
10352 10351 10363 10366     9 
10353 10351 10363 10364     9 
10353 10351 10363 10365     9 
10353 10351 10363 10366     9 
10346 10354 10357 10358     9 
10355 10354 10357 10358     9 
10356 10354 10357 10358     9 
10354 10357 10358 10359     9 
10354 10357 10358 10360     9 
10357 10358 10360 10361     9 
10357 10358 10360 10362     9 
10357 10358 10360 10410     9 
10359 10358 10360 10361     9 
10359 10358 10360 10362     9 
10359 10358 10360 10410     9 
10358 10360 10410 10411     9 
10358 10360 10410 10412     9 
10358 10360 10410 10413     9 
10361 10360 10410 10411     9 
10361 10360 10410 10412     9 
10361 10360 10410 10413     9 
10362 10360 10410 10411     9 
10362 10360 10410 10412     9 
10362 10360 10410 10413     9 
10351 10363 10366 10367     9 
10351 10363 10366 10368     9 
10351 10363 10366 10369     9 
10364 10363 10366 10367     9 
10364 10363 10366 10368     9 
10364 10363 10366 10369     9 
10365 10363 10366 10367     9 
10365 10363 10366 10368     9 
10365 10363 10366 10369     9 
10363 10366 10369 10370     9 
10363 10366 10369 10371     9 
10363 10366 10369 10372     9 
10367 10366 10369 10370     9 
10367 10366 10369 10371     9 
10367 10366 10369 10372     9 
10368 10366 10369 10370     9 
10368 10366 10369 10371     9 
10368 10366 10369 10372     9 
10366 10369 10372 10373     9 
10366 10369 10372 10374     9 
10366 10369 10372 10375     9 
10370 10369 10372 10373     9 
10370 10369 10372 10374     9 
10370 10369 10372 10375     9 
10371 10369 10372 10373     9 
10371 10369 10372 10374     9 
10371 10369 10372 10375     9 
10369 10372 10375 10376     9 
10369 10372 10375 10377     9 
10369 10372 10375 10378     9 
10373 10372 10375 10376     9 
10373 10372 10375 10377     9 
10373 10372 10375 10378     9 
10374 10372 10375 10376     9 
10374 10372 10375 10377     9 
10374 10372 10375 10378     9 
10372 10375 10378 10379     9 
10372 10375 10378 10380     9 
10372 10375 10378 10381     9 
10376 10375 10378 10379     9 
10376 10375 10378 10380     9 
10376 10375 10378 10381     9 
10377 10375 10378 10379     9 
10377 10375 10378 10380     9 
10377 10375 10378 10381     9 
10375 10378 10381 10382     9 
10375 10378 10381 10383     9 
10379 10378 10381 10382     9 
10379 10378 10381 10383     9 
10380 10378 10381 10382     9 
10380 10378 10381 10383     9 
10378 10381 10383 10384     9 
10378 10381 10383 10385     9 
10382 10381 10383 10384     9 
10382 10381 10383 10385     9 
10381 10383 10385 10386     9 
10381 10383 10385 10387     9 
10381 10383 10385 10388     9 
10384 10383 10385 10386     9 
10384 10383 10385 10387     9 
10384 10383 10385 10388     9 
10383 10385 10388 10389     9 
10383 10385 10388 10390     9 
10383 10385 10388 10391     9 
10386 10385 10388 10389     9 
10386 10385 10388 10390     9 
10386 10385 10388 10391     9 
10387 10385 10388 10389     9 
10387 10385 10388 10390     9 
10387 10385 10388 10391     9 
10385 10388 10391 10392     9 
10385 10388 10391 10393     9 
10385 10388 10391 10394     9 
10389 10388 10391 10392     9 
10389 10388 10391 10393     9 
10389 10388 10391 10394     9 
10390 10388 10391 10392     9 
10390 10388 10391 10393     9 
10390 10388 10391 10394     9 
10388 10391 10394 10395     9 
10388 10391 10394 10396     9 
10388 10391 10394 10397     9 
10392 10391 10394 10395     9 
10392 10391 10394 10396     9 
10392 10391 10394 10397     9 
10393 10391 10394 10395     9 
10393 10391 10394 10396     9 
10393 10391 10394 10397     9 
10391 10394 10397 10398     9 
10391 10394 10397 10399     9 
10391 10394 10397 10400     9 
10395 10394 10397 10398     9 
10395 10394 10397 10399     9 
10395 10394 10397 10400     9 
10396 10394 10397 10398     9 
10396 10394 10397 10399     9 
10396 10394 10397 10400     9 
10394 10397 10400 10401     9 
10394 10397 10400 10402     9 
10394 10397 10400 10403     9 
10398 10397 10400 10401     9 
10398 10397 10400 10402     9 
10398 10397 10400 10403     9 
10399 10397 10400 10401     9 
10399 10397 10400 10402     9 
10399 10397 10400 10403     9 
10397 10400 10403 10404     9 
10397 10400 10403 10405     9 
10397 10400 10403 10406     9 
10401 10400 10403 10404     9 
10401 10400 10403 10405     9 
10401 10400 10403 10406     9 
10402 10400 10403 10404     9 
10402 10400 10403 10405     9 
10402 10400 10403 10406     9 
10400 10403 10406 10407     9 
10400 10403 10406 10408     9 
10400 10403 10406 10409     9 
10404 10403 10406 10407     9 
10404 10403 10406 10408     9 
10404 10403 10406 10409     9 
10405 10403 10406 10407     9 
10405 10403 10406 10408     9 
10405 10403 10406 10409     9 
10360 10410 10413 10414     9 
10360 10410 10413 10415     9 
10360 10410 10413 10416     9 
10411 10410 10413 10414     9 
10411 10410 10413 10415     9 
10411 10410 10413 10416     9 
10412 10410 10413 10414     9 
10412 10410 10413 10415     9 
10412 10410 10413 10416     9 
10410 10413 10416 10417     9 
10410 10413 10416 10418     9 
10410 10413 10416 10419     9 
10414 10413 10416 10417     9 
10414 10413 10416 10418     9 
10414 10413 10416 10419     9 
10415 10413 10416 10417     9 
10415 10413 10416 10418     9 
10415 10413 10416 10419     9 
10413 10416 10419 10420     9 
10413 10416 10419 10421     9 
10413 10416 10419 10422     9 
10417 10416 10419 10420     9 
10417 10416 10419 10421     9 
10417 10416 10419 10422     9 
10418 10416 10419 10420     9 
10418 10416 10419 10421     9 
10418 10416 10419 10422     9 
10416 10419 10422 10423     9 
10416 10419 10422 10424     9 
10416 10419 10422 10425     9 
10420 10419 10422 10423     9 
10420 10419 10422 10424     9 
10420 10419 10422 10425     9 
10421 10419 10422 10423     9 
10421 10419 10422 10424     9 
10421 10419 10422 10425     9 
10419 10422 10425 10426     9 
10419 10422 10425 10427     9 
10419 10422 10425 10428     9 
10423 10422 10425 10426     9 
10423 10422 10425 10427     9 
10423 10422 10425 10428     9 
10424 10422 10425 10426     9 
10424 10422 10425 10427     9 
10424 10422 10425 10428     9 
10422 10425 10428 10429     9 
10422 10425 10428 10430     9 
10422 10425 10428 10431     9 
10426 10425 10428 10429     9 
10426 10425 10428 10430     9 
10426 10425 10428 10431     9 
10427 10425 10428 10429     9 
10427 10425 10428 10430     9 
10427 10425 10428 10431     9 
10425 10428 10431 10432     9 
10425 10428 10431 10433     9 
10425 10428 10431 10434     9 
10429 10428 10431 10432     9 
10429 10428 10431 10433     9 
10429 10428 10431 10434     9 
10430 10428 10431 10432     9 
10430 10428 10431 10433     9 
10430 10428 10431 10434     9 
10428 10431 10434 10435     9 
10428 10431 10434 10436     9 
10428 10431 10434 10437     9 
10432 10431 10434 10435     9 
10432 10431 10434 10436     9 
10432 10431 10434 10437     9 
10433 10431 10434 10435     9 
10433 10431 10434 10436     9 
10433 10431 10434 10437     9 
10431 10434 10437 10438     9 
10431 10434 10437 10439     9 
10431 10434 10437 10440     9 
10435 10434 10437 10438     9 
10435 10434 10437 10439     9 
10435 10434 10437 10440     9 
10436 10434 10437 10438     9 
10436 10434 10437 10439     9 
10436 10434 10437 10440     9 
10434 10437 10440 10441     9 
10434 10437 10440 10442     9 
10434 10437 10440 10443     9 
10438 10437 10440 10441     9 
10438 10437 10440 10442     9 
10438 10437 10440 10443     9 
10439 10437 10440 10441     9 
10439 10437 10440 10442     9 
10439 10437 10440 10443     9 
10437 10440 10443 10444     9 
10437 10440 10443 10445     9 
10437 10440 10443 10446     9 
10441 10440 10443 10444     9 
10441 10440 10443 10445     9 
10441 10440 10443 10446     9 
10442 10440 10443 10444     9 
10442 10440 10443 10445     9 
10442 10440 10443 10446     9 
10440 10443 10446 10447     9 
10440 10443 10446 10448     9 
10440 10443 10446 10449     9 
10444 10443 10446 10447     9 
10444 10443 10446 10448     9 
10444 10443 10446 10449     9 
10445 10443 10446 10447     9 
10445 10443 10446 10448     9 
10445 10443 10446 10449     9 
10443 10446 10449 10450     9 
10443 10446 10449 10451     9 
10443 10446 10449 10452     9 
10447 10446 10449 10450     9 
10447 10446 10449 10451     9 
10447 10446 10449 10452     9 
10448 10446 10449 10450     9 
10448 10446 10449 10451     9 
10448 10446 10449 10452     9 
10457 10453 10454 10455     9 
10457 10453 10454 10456     9 
10457 10453 10454 10469     9 
10461 10453 10454 10455     9 
10461 10453 10454 10456     9 
10461 10453 10454 10469     9 
10465 10453 10454 10455     9 
10465 10453 10454 10456     9 
10465 10453 10454 10469     9 
10454 10453 10457 10458     9 
10454 10453 10457 10459     9 
10454 10453 10457 10460     9 
10461 10453 10457 10458     9 
10461 10453 10457 10459     9 
10461 10453 10457 10460     9 
10465 10453 10457 10458     9 
10465 10453 10457 10459     9 
10465 10453 10457 10460     9 
10454 10453 10461 10462     9 
10454 10453 10461 10463     9 
10454 10453 10461 10464     9 
10457 10453 10461 10462     9 
10457 10453 10461 10463     9 
10457 10453 10461 10464     9 
10465 10453 10461 10462     9 
10465 10453 10461 10463     9 
10465 10453 10461 10464     9 
10454 10453 10465 10466     9 
10454 10453 10465 10467     9 
10454 10453 10465 10468     9 
10457 10453 10465 10466     9 
10457 10453 10465 10467     9 
10457 10453 10465 10468     9 
10461 10453 10465 10466     9 
10461 10453 10465 10467     9 
10461 10453 10465 10468     9 
10453 10454 10469 10470     9 
10453 10454 10469 10471     9 
10453 10454 10469 10475     9 
10455 10454 10469 10470     9 
10455 10454 10469 10471     9 
10455 10454 10469 10475     9 
10456 10454 10469 10470     9 
10456 10454 10469 10471     9 
10456 10454 10469 10475     9 
10454 10469 10475 10472     9 
10470 10469 10475 10472     9 
10471 10469 10475 10472     9 
10473 10472 10475 10469     9 
10474 10472 10475 10469     9 
10476 10472 10475 10469     9 
10473 10472 10476 10477     9 
10474 10472 10476 10477     9 
10475 10472 10476 10477     9 
10472 10476 10477 10478     9 
10472 10476 10477 10479     9 
10472 10476 10477 10480     9 
10476 10477 10480 10481     9 
10476 10477 10480 10482     9 
10476 10477 10480 10488     9 
10478 10477 10480 10481     9 
10478 10477 10480 10482     9 
10478 10477 10480 10488     9 
10479 10477 10480 10481     9 
10479 10477 10480 10482     9 
10479 10477 10480 10488     9 
10477 10480 10482 10483     9 
10481 10480 10482 10483     9 
10488 10480 10482 10483     9 
10477 10480 10488 10489     9 
10477 10480 10488 10490     9 
10477 10480 10488 10491     9 
10481 10480 10488 10489     9 
10481 10480 10488 10490     9 
10481 10480 10488 10491     9 
10482 10480 10488 10489     9 
10482 10480 10488 10490     9 
10482 10480 10488 10491     9 
10480 10482 10483 10484     9 
10480 10482 10483 10485     9 
10482 10483 10485 10486     9 
10482 10483 10485 10487     9 
10482 10483 10485 10497     9 
10484 10483 10485 10486     9 
10484 10483 10485 10487     9 
10484 10483 10485 10497     9 
10483 10485 10497 10498     9 
10483 10485 10497 10499     9 
10483 10485 10497 10500     9 
10486 10485 10497 10498     9 
10486 10485 10497 10499     9 
10486 10485 10497 10500     9 
10487 10485 10497 10498     9 
10487 10485 10497 10499     9 
10487 10485 10497 10500     9 
10480 10488 10491 10492     9 
10489 10488 10491 10492     9 
10490 10488 10491 10492     9 
10488 10491 10492 10493     9 
10488 10491 10492 10494     9 
10491 10492 10494 10495     9 
10491 10492 10494 10496     9 
10491 10492 10494 10544     9 
10493 10492 10494 10495     9 
10493 10492 10494 10496     9 
10493 10492 10494 10544     9 
10492 10494 10544 10545     9 
10492 10494 10544 10546     9 
10492 10494 10544 10547     9 
10495 10494 10544 10545     9 
10495 10494 10544 10546     9 
10495 10494 10544 10547     9 
10496 10494 10544 10545     9 
10496 10494 10544 10546     9 
10496 10494 10544 10547     9 
10485 10497 10500 10501     9 
10485 10497 10500 10502     9 
10485 10497 10500 10503     9 
10498 10497 10500 10501     9 
10498 10497 10500 10502     9 
10498 10497 10500 10503     9 
10499 10497 10500 10501     9 
10499 10497 10500 10502     9 
10499 10497 10500 10503     9 
10497 10500 10503 10504     9 
10497 10500 10503 10505     9 
10497 10500 10503 10506     9 
10501 10500 10503 10504     9 
10501 10500 10503 10505     9 
10501 10500 10503 10506     9 
10502 10500 10503 10504     9 
10502 10500 10503 10505     9 
10502 10500 10503 10506     9 
10500 10503 10506 10507     9 
10500 10503 10506 10508     9 
10500 10503 10506 10509     9 
10504 10503 10506 10507     9 
10504 10503 10506 10508     9 
10504 10503 10506 10509     9 
10505 10503 10506 10507     9 
10505 10503 10506 10508     9 
10505 10503 10506 10509     9 
10503 10506 10509 10510     9 
10503 10506 10509 10511     9 
10503 10506 10509 10512     9 
10507 10506 10509 10510     9 
10507 10506 10509 10511     9 
10507 10506 10509 10512     9 
10508 10506 10509 10510     9 
10508 10506 10509 10511     9 
10508 10506 10509 10512     9 
10506 10509 10512 10513     9 
10506 10509 10512 10514     9 
10506 10509 10512 10515     9 
10510 10509 10512 10513     9 
10510 10509 10512 10514     9 
10510 10509 10512 10515     9 
10511 10509 10512 10513     9 
10511 10509 10512 10514     9 
10511 10509 10512 10515     9 
10509 10512 10515 10516     9 
10509 10512 10515 10517     9 
10513 10512 10515 10516     9 
10513 10512 10515 10517     9 
10514 10512 10515 10516     9 
10514 10512 10515 10517     9 
10512 10515 10517 10518     9 
10512 10515 10517 10519     9 
10516 10515 10517 10518     9 
10516 10515 10517 10519     9 
10515 10517 10519 10520     9 
10515 10517 10519 10521     9 
10515 10517 10519 10522     9 
10518 10517 10519 10520     9 
10518 10517 10519 10521     9 
10518 10517 10519 10522     9 
10517 10519 10522 10523     9 
10517 10519 10522 10524     9 
10517 10519 10522 10525     9 
10520 10519 10522 10523     9 
10520 10519 10522 10524     9 
10520 10519 10522 10525     9 
10521 10519 10522 10523     9 
10521 10519 10522 10524     9 
10521 10519 10522 10525     9 
10519 10522 10525 10526     9 
10519 10522 10525 10527     9 
10519 10522 10525 10528     9 
10523 10522 10525 10526     9 
10523 10522 10525 10527     9 
10523 10522 10525 10528     9 
10524 10522 10525 10526     9 
10524 10522 10525 10527     9 
10524 10522 10525 10528     9 
10522 10525 10528 10529     9 
10522 10525 10528 10530     9 
10522 10525 10528 10531     9 
10526 10525 10528 10529     9 
10526 10525 10528 10530     9 
10526 10525 10528 10531     9 
10527 10525 10528 10529     9 
10527 10525 10528 10530     9 
10527 10525 10528 10531     9 
10525 10528 10531 10532     9 
10525 10528 10531 10533     9 
10525 10528 10531 10534     9 
10529 10528 10531 10532     9 
10529 10528 10531 10533     9 
10529 10528 10531 10534     9 
10530 10528 10531 10532     9 
10530 10528 10531 10533     9 
10530 10528 10531 10534     9 
10528 10531 10534 10535     9 
10528 10531 10534 10536     9 
10528 10531 10534 10537     9 
10532 10531 10534 10535     9 
10532 10531 10534 10536     9 
10532 10531 10534 10537     9 
10533 10531 10534 10535     9 
10533 10531 10534 10536     9 
10533 10531 10534 10537     9 
10531 10534 10537 10538     9 
10531 10534 10537 10539     9 
10531 10534 10537 10540     9 
10535 10534 10537 10538     9 
10535 10534 10537 10539     9 
10535 10534 10537 10540     9 
10536 10534 10537 10538     9 
10536 10534 10537 10539     9 
10536 10534 10537 10540     9 
10534 10537 10540 10541     9 
10534 10537 10540 10542     9 
10534 10537 10540 10543     9 
10538 10537 10540 10541     9 
10538 10537 10540 10542     9 
10538 10537 10540 10543     9 
10539 10537 10540 10541     9 
10539 10537 10540 10542     9 
10539 10537 10540 10543     9 
10494 10544 10547 10548     9 
10494 10544 10547 10549     9 
10494 10544 10547 10550     9 
10545 10544 10547 10548     9 
10545 10544 10547 10549     9 
10545 10544 10547 10550     9 
10546 10544 10547 10548     9 
10546 10544 10547 10549     9 
10546 10544 10547 10550     9 
10544 10547 10550 10551     9 
10544 10547 10550 10552     9 
10544 10547 10550 10553     9 
10548 10547 10550 10551     9 
10548 10547 10550 10552     9 
10548 10547 10550 10553     9 
10549 10547 10550 10551     9 
10549 10547 10550 10552     9 
10549 10547 10550 10553     9 
10547 10550 10553 10554     9 
10547 10550 10553 10555     9 
10547 10550 10553 10556     9 
10551 10550 10553 10554     9 
10551 10550 10553 10555     9 
10551 10550 10553 10556     9 
10552 10550 10553 10554     9 
10552 10550 10553 10555     9 
10552 10550 10553 10556     9 
10550 10553 10556 10557     9 
10550 10553 10556 10558     9 
10550 10553 10556 10559     9 
10554 10553 10556 10557     9 
10554 10553 10556 10558     9 
10554 10553 10556 10559     9 
10555 10553 10556 10557     9 
10555 10553 10556 10558     9 
10555 10553 10556 10559     9 
10553 10556 10559 10560     9 
10553 10556 10559 10561     9 
10553 10556 10559 10562     9 
10557 10556 10559 10560     9 
10557 10556 10559 10561     9 
10557 10556 10559 10562     9 
10558 10556 10559 10560     9 
10558 10556 10559 10561     9 
10558 10556 10559 10562     9 
10556 10559 10562 10563     9 
10556 10559 10562 10564     9 
10556 10559 10562 10565     9 
10560 10559 10562 10563     9 
10560 10559 10562 10564     9 
10560 10559 10562 10565     9 
10561 10559 10562 10563     9 
10561 10559 10562 10564     9 
10561 10559 10562 10565     9 
10559 10562 10565 10566     9 
10559 10562 10565 10567     9 
10559 10562 10565 10568     9 
10563 10562 10565 10566     9 
10563 10562 10565 10567     9 
10563 10562 10565 10568     9 
10564 10562 10565 10566     9 
10564 10562 10565 10567     9 
10564 10562 10565 10568     9 
10562 10565 10568 10569     9 
10562 10565 10568 10570     9 
10562 10565 10568 10571     9 
10566 10565 10568 10569     9 
10566 10565 10568 10570     9 
10566 10565 10568 10571     9 
10567 10565 10568 10569     9 
10567 10565 10568 10570     9 
10567 10565 10568 10571     9 
10565 10568 10571 10572     9 
10565 10568 10571 10573     9 
10565 10568 10571 10574     9 
10569 10568 10571 10572     9 
10569 10568 10571 10573     9 
10569 10568 10571 10574     9 
10570 10568 10571 10572     9 
10570 10568 10571 10573     9 
10570 10568 10571 10574     9 
10568 10571 10574 10575     9 
10568 10571 10574 10576     9 
10568 10571 10574 10577     9 
10572 10571 10574 10575     9 
10572 10571 10574 10576     9 
10572 10571 10574 10577     9 
10573 10571 10574 10575     9 
10573 10571 10574 10576     9 
10573 10571 10574 10577     9 
10571 10574 10577 10578     9 
10571 10574 10577 10579     9 
10571 10574 10577 10580     9 
10575 10574 10577 10578     9 
10575 10574 10577 10579     9 
10575 10574 10577 10580     9 
10576 10574 10577 10578     9 
10576 10574 10577 10579     9 
10576 10574 10577 10580     9 
10574 10577 10580 10581     9 
10574 10577 10580 10582     9 
10574 10577 10580 10583     9 
10578 10577 10580 10581     9 
10578 10577 10580 10582     9 
10578 10577 10580 10583     9 
10579 10577 10580 10581     9 
10579 10577 10580 10582     9 
10579 10577 10580 10583     9 
10577 10580 10583 10584     9 
10577 10580 10583 10585     9 
10577 10580 10583 10586     9 
10581 10580 10583 10584     9 
10581 10580 10583 10585     9 
10581 10580 10583 10586     9 
10582 10580 10583 10584     9 
10582 10580 10583 10585     9 
10582 10580 10583 10586     9 
10591 10587 10588 10589     9 
10591 10587 10588 10590     9 
10591 10587 10588 10603     9 
10595 10587 10588 10589     9 
10595 10587 10588 10590     9 
10595 10587 10588 10603     9 
10599 10587 10588 10589     9 
10599 10587 10588 10590     9 
10599 10587 10588 10603     9 
10588 10587 10591 10592     9 
10588 10587 10591 10593     9 
10588 10587 10591 10594     9 
10595 10587 10591 10592     9 
10595 10587 10591 10593     9 
10595 10587 10591 10594     9 
10599 10587 10591 10592     9 
10599 10587 10591 10593     9 
10599 10587 10591 10594     9 
10588 10587 10595 10596     9 
10588 10587 10595 10597     9 
10588 10587 10595 10598     9 
10591 10587 10595 10596     9 
10591 10587 10595 10597     9 
10591 10587 10595 10598     9 
10599 10587 10595 10596     9 
10599 10587 10595 10597     9 
10599 10587 10595 10598     9 
10588 10587 10599 10600     9 
10588 10587 10599 10601     9 
10588 10587 10599 10602     9 
10591 10587 10599 10600     9 
10591 10587 10599 10601     9 
10591 10587 10599 10602     9 
10595 10587 10599 10600     9 
10595 10587 10599 10601     9 
10595 10587 10599 10602     9 
10587 10588 10603 10604     9 
10587 10588 10603 10605     9 
10587 10588 10603 10609     9 
10589 10588 10603 10604     9 
10589 10588 10603 10605     9 
10589 10588 10603 10609     9 
10590 10588 10603 10604     9 
10590 10588 10603 10605     9 
10590 10588 10603 10609     9 
10588 10603 10609 10606     9 
10604 10603 10609 10606     9 
10605 10603 10609 10606     9 
10607 10606 10609 10603     9 
10608 10606 10609 10603     9 
10610 10606 10609 10603     9 
10607 10606 10610 10611     9 
10608 10606 10610 10611     9 
10609 10606 10610 10611     9 
10606 10610 10611 10612     9 
10606 10610 10611 10613     9 
10606 10610 10611 10614     9 
10610 10611 10614 10615     9 
10610 10611 10614 10616     9 
10610 10611 10614 10622     9 
10612 10611 10614 10615     9 
10612 10611 10614 10616     9 
10612 10611 10614 10622     9 
10613 10611 10614 10615     9 
10613 10611 10614 10616     9 
10613 10611 10614 10622     9 
10611 10614 10616 10617     9 
10615 10614 10616 10617     9 
10622 10614 10616 10617     9 
10611 10614 10622 10623     9 
10611 10614 10622 10624     9 
10611 10614 10622 10625     9 
10615 10614 10622 10623     9 
10615 10614 10622 10624     9 
10615 10614 10622 10625     9 
10616 10614 10622 10623     9 
10616 10614 10622 10624     9 
10616 10614 10622 10625     9 
10614 10616 10617 10618     9 
10614 10616 10617 10619     9 
10616 10617 10619 10620     9 
10616 10617 10619 10621     9 
10616 10617 10619 10631     9 
10618 10617 10619 10620     9 
10618 10617 10619 10621     9 
10618 10617 10619 10631     9 
10617 10619 10631 10632     9 
10617 10619 10631 10633     9 
10617 10619 10631 10634     9 
10620 10619 10631 10632     9 
10620 10619 10631 10633     9 
10620 10619 10631 10634     9 
10621 10619 10631 10632     9 
10621 10619 10631 10633     9 
10621 10619 10631 10634     9 
10614 10622 10625 10626     9 
10623 10622 10625 10626     9 
10624 10622 10625 10626     9 
10622 10625 10626 10627     9 
10622 10625 10626 10628     9 
10625 10626 10628 10629     9 
10625 10626 10628 10630     9 
10625 10626 10628 10678     9 
10627 10626 10628 10629     9 
10627 10626 10628 10630     9 
10627 10626 10628 10678     9 
10626 10628 10678 10679     9 
10626 10628 10678 10680     9 
10626 10628 10678 10681     9 
10629 10628 10678 10679     9 
10629 10628 10678 10680     9 
10629 10628 10678 10681     9 
10630 10628 10678 10679     9 
10630 10628 10678 10680     9 
10630 10628 10678 10681     9 
10619 10631 10634 10635     9 
10619 10631 10634 10636     9 
10619 10631 10634 10637     9 
10632 10631 10634 10635     9 
10632 10631 10634 10636     9 
10632 10631 10634 10637     9 
10633 10631 10634 10635     9 
10633 10631 10634 10636     9 
10633 10631 10634 10637     9 
10631 10634 10637 10638     9 
10631 10634 10637 10639     9 
10631 10634 10637 10640     9 
10635 10634 10637 10638     9 
10635 10634 10637 10639     9 
10635 10634 10637 10640     9 
10636 10634 10637 10638     9 
10636 10634 10637 10639     9 
10636 10634 10637 10640     9 
10634 10637 10640 10641     9 
10634 10637 10640 10642     9 
10634 10637 10640 10643     9 
10638 10637 10640 10641     9 
10638 10637 10640 10642     9 
10638 10637 10640 10643     9 
10639 10637 10640 10641     9 
10639 10637 10640 10642     9 
10639 10637 10640 10643     9 
10637 10640 10643 10644     9 
10637 10640 10643 10645     9 
10637 10640 10643 10646     9 
10641 10640 10643 10644     9 
10641 10640 10643 10645     9 
10641 10640 10643 10646     9 
10642 10640 10643 10644     9 
10642 10640 10643 10645     9 
10642 10640 10643 10646     9 
10640 10643 10646 10647     9 
10640 10643 10646 10648     9 
10640 10643 10646 10649     9 
10644 10643 10646 10647     9 
10644 10643 10646 10648     9 
10644 10643 10646 10649     9 
10645 10643 10646 10647     9 
10645 10643 10646 10648     9 
10645 10643 10646 10649     9 
10643 10646 10649 10650     9 
10643 10646 10649 10651     9 
10647 10646 10649 10650     9 
10647 10646 10649 10651     9 
10648 10646 10649 10650     9 
10648 10646 10649 10651     9 
10646 10649 10651 10652     9 
10646 10649 10651 10653     9 
10650 10649 10651 10652     9 
10650 10649 10651 10653     9 
10649 10651 10653 10654     9 
10649 10651 10653 10655     9 
10649 10651 10653 10656     9 
10652 10651 10653 10654     9 
10652 10651 10653 10655     9 
10652 10651 10653 10656     9 
10651 10653 10656 10657     9 
10651 10653 10656 10658     9 
10651 10653 10656 10659     9 
10654 10653 10656 10657     9 
10654 10653 10656 10658     9 
10654 10653 10656 10659     9 
10655 10653 10656 10657     9 
10655 10653 10656 10658     9 
10655 10653 10656 10659     9 
10653 10656 10659 10660     9 
10653 10656 10659 10661     9 
10653 10656 10659 10662     9 
10657 10656 10659 10660     9 
10657 10656 10659 10661     9 
10657 10656 10659 10662     9 
10658 10656 10659 10660     9 
10658 10656 10659 10661     9 
10658 10656 10659 10662     9 
10656 10659 10662 10663     9 
10656 10659 10662 10664     9 
10656 10659 10662 10665     9 
10660 10659 10662 10663     9 
10660 10659 10662 10664     9 
10660 10659 10662 10665     9 
10661 10659 10662 10663     9 
10661 10659 10662 10664     9 
10661 10659 10662 10665     9 
10659 10662 10665 10666     9 
10659 10662 10665 10667     9 
10659 10662 10665 10668     9 
10663 10662 10665 10666     9 
10663 10662 10665 10667     9 
10663 10662 10665 10668     9 
10664 10662 10665 10666     9 
10664 10662 10665 10667     9 
10664 10662 10665 10668     9 
10662 10665 10668 10669     9 
10662 10665 10668 10670     9 
10662 10665 10668 10671     9 
10666 10665 10668 10669     9 
10666 10665 10668 10670     9 
10666 10665 10668 10671     9 
10667 10665 10668 10669     9 
10667 10665 10668 10670     9 
10667 10665 10668 10671     9 
10665 10668 10671 10672     9 
10665 10668 10671 10673     9 
10665 10668 10671 10674     9 
10669 10668 10671 10672     9 
10669 10668 10671 10673     9 
10669 10668 10671 10674     9 
10670 10668 10671 10672     9 
10670 10668 10671 10673     9 
10670 10668 10671 10674     9 
10668 10671 10674 10675     9 
10668 10671 10674 10676     9 
10668 10671 10674 10677     9 
10672 10671 10674 10675     9 
10672 10671 10674 10676     9 
10672 10671 10674 10677     9 
10673 10671 10674 10675     9 
10673 10671 10674 10676     9 
10673 10671 10674 10677     9 
10628 10678 10681 10682     9 
10628 10678 10681 10683     9 
10628 10678 10681 10684     9 
10679 10678 10681 10682     9 
10679 10678 10681 10683     9 
10679 10678 10681 10684     9 
10680 10678 10681 10682     9 
10680 10678 10681 10683     9 
10680 10678 10681 10684     9 
10678 10681 10684 10685     9 
10678 10681 10684 10686     9 
10678 10681 10684 10687     9 
10682 10681 10684 10685     9 
10682 10681 10684 10686     9 
10682 10681 10684 10687     9 
10683 10681 10684 10685     9 
10683 10681 10684 10686     9 
10683 10681 10684 10687     9 
10681 10684 10687 10688     9 
10681 10684 10687 10689     9 
10681 10684 10687 10690     9 
10685 10684 10687 10688     9 
10685 10684 10687 10689     9 
10685 10684 10687 10690     9 
10686 10684 10687 10688     9 
10686 10684 10687 10689     9 
10686 10684 10687 10690     9 
10684 10687 10690 10691     9 
10684 10687 10690 10692     9 
10684 10687 10690 10693     9 
10688 10687 10690 10691     9 
10688 10687 10690 10692     9 
10688 10687 10690 10693     9 
10689 10687 10690 10691     9 
10689 10687 10690 10692     9 
10689 10687 10690 10693     9 
10687 10690 10693 10694     9 
10687 10690 10693 10695     9 
10687 10690 10693 10696     9 
10691 10690 10693 10694     9 
10691 10690 10693 10695     9 
10691 10690 10693 10696     9 
10692 10690 10693 10694     9 
10692 10690 10693 10695     9 
10692 10690 10693 10696     9 
10690 10693 10696 10697     9 
10690 10693 10696 10698     9 
10690 10693 10696 10699     9 
10694 10693 10696 10697     9 
10694 10693 10696 10698     9 
10694 10693 10696 10699     9 
10695 10693 10696 10697     9 
10695 10693 10696 10698     9 
10695 10693 10696 10699     9 
10693 10696 10699 10700     9 
10693 10696 10699 10701     9 
10693 10696 10699 10702     9 
10697 10696 10699 10700     9 
10697 10696 10699 10701     9 
10697 10696 10699 10702     9 
10698 10696 10699 10700     9 
10698 10696 10699 10701     9 
10698 10696 10699 10702     9 
10696 10699 10702 10703     9 
10696 10699 10702 10704     9 
10696 10699 10702 10705     9 
10700 10699 10702 10703     9 
10700 10699 10702 10704     9 
10700 10699 10702 10705     9 
10701 10699 10702 10703     9 
10701 10699 10702 10704     9 
10701 10699 10702 10705     9 
10699 10702 10705 10706     9 
10699 10702 10705 10707     9 
10699 10702 10705 10708     9 
10703 10702 10705 10706     9 
10703 10702 10705 10707     9 
10703 10702 10705 10708     9 
10704 10702 10705 10706     9 
10704 10702 10705 10707     9 
10704 10702 10705 10708     9 
10702 10705 10708 10709     9 
10702 10705 10708 10710     9 
10702 10705 10708 10711     9 
10706 10705 10708 10709     9 
10706 10705 10708 10710     9 
10706 10705 10708 10711     9 
10707 10705 10708 10709     9 
10707 10705 10708 10710     9 
10707 10705 10708 10711     9 
10705 10708 10711 10712     9 
10705 10708 10711 10713     9 
10705 10708 10711 10714     9 
10709 10708 10711 10712     9 
10709 10708 10711 10713     9 
10709 10708 10711 10714     9 
10710 10708 10711 10712     9 
10710 10708 10711 10713     9 
10710 10708 10711 10714     9 
10708 10711 10714 10715     9 
10708 10711 10714 10716     9 
10708 10711 10714 10717     9 
10712 10711 10714 10715     9 
10712 10711 10714 10716     9 
10712 10711 10714 10717     9 
10713 10711 10714 10715     9 
10713 10711 10714 10716     9 
10713 10711 10714 10717     9 
10711 10714 10717 10718     9 
10711 10714 10717 10719     9 
10711 10714 10717 10720     9 
10715 10714 10717 10718     9 
10715 10714 10717 10719     9 
10715 10714 10717 10720     9 
10716 10714 10717 10718     9 
10716 10714 10717 10719     9 
10716 10714 10717 10720     9 
10725 10721 10722 10723     9 
10725 10721 10722 10724     9 
10725 10721 10722 10737     9 
10729 10721 10722 10723     9 
10729 10721 10722 10724     9 
10729 10721 10722 10737     9 
10733 10721 10722 10723     9 
10733 10721 10722 10724     9 
10733 10721 10722 10737     9 
10722 10721 10725 10726     9 
10722 10721 10725 10727     9 
10722 10721 10725 10728     9 
10729 10721 10725 10726     9 
10729 10721 10725 10727     9 
10729 10721 10725 10728     9 
10733 10721 10725 10726     9 
10733 10721 10725 10727     9 
10733 10721 10725 10728     9 
10722 10721 10729 10730     9 
10722 10721 10729 10731     9 
10722 10721 10729 10732     9 
10725 10721 10729 10730     9 
10725 10721 10729 10731     9 
10725 10721 10729 10732     9 
10733 10721 10729 10730     9 
10733 10721 10729 10731     9 
10733 10721 10729 10732     9 
10722 10721 10733 10734     9 
10722 10721 10733 10735     9 
10722 10721 10733 10736     9 
10725 10721 10733 10734     9 
10725 10721 10733 10735     9 
10725 10721 10733 10736     9 
10729 10721 10733 10734     9 
10729 10721 10733 10735     9 
10729 10721 10733 10736     9 
10721 10722 10737 10738     9 
10721 10722 10737 10739     9 
10721 10722 10737 10743     9 
10723 10722 10737 10738     9 
10723 10722 10737 10739     9 
10723 10722 10737 10743     9 
10724 10722 10737 10738     9 
10724 10722 10737 10739     9 
10724 10722 10737 10743     9 
10722 10737 10743 10740     9 
10738 10737 10743 10740     9 
10739 10737 10743 10740     9 
10741 10740 10743 10737     9 
10742 10740 10743 10737     9 
10744 10740 10743 10737     9 
10741 10740 10744 10745     9 
10742 10740 10744 10745     9 
10743 10740 10744 10745     9 
10740 10744 10745 10746     9 
10740 10744 10745 10747     9 
10740 10744 10745 10748     9 
10744 10745 10748 10749     9 
10744 10745 10748 10750     9 
10744 10745 10748 10756     9 
10746 10745 10748 10749     9 
10746 10745 10748 10750     9 
10746 10745 10748 10756     9 
10747 10745 10748 10749     9 
10747 10745 10748 10750     9 
10747 10745 10748 10756     9 
10745 10748 10750 10751     9 
10749 10748 10750 10751     9 
10756 10748 10750 10751     9 
10745 10748 10756 10757     9 
10745 10748 10756 10758     9 
10745 10748 10756 10759     9 
10749 10748 10756 10757     9 
10749 10748 10756 10758     9 
10749 10748 10756 10759     9 
10750 10748 10756 10757     9 
10750 10748 10756 10758     9 
10750 10748 10756 10759     9 
10748 10750 10751 10752     9 
10748 10750 10751 10753     9 
10750 10751 10753 10754     9 
10750 10751 10753 10755     9 
10750 10751 10753 10765     9 
10752 10751 10753 10754     9 
10752 10751 10753 10755     9 
10752 10751 10753 10765     9 
10751 10753 10765 10766     9 
10751 10753 10765 10767     9 
10751 10753 10765 10768     9 
10754 10753 10765 10766     9 
10754 10753 10765 10767     9 
10754 10753 10765 10768     9 
10755 10753 10765 10766     9 
10755 10753 10765 10767     9 
10755 10753 10765 10768     9 
10748 10756 10759 10760     9 
10757 10756 10759 10760     9 
10758 10756 10759 10760     9 
10756 10759 10760 10761     9 
10756 10759 10760 10762     9 
10759 10760 10762 10763     9 
10759 10760 10762 10764     9 
10759 10760 10762 10812     9 
10761 10760 10762 10763     9 
10761 10760 10762 10764     9 
10761 10760 10762 10812     9 
10760 10762 10812 10813     9 
10760 10762 10812 10814     9 
10760 10762 10812 10815     9 
10763 10762 10812 10813     9 
10763 10762 10812 10814     9 
10763 10762 10812 10815     9 
10764 10762 10812 10813     9 
10764 10762 10812 10814     9 
10764 10762 10812 10815     9 
10753 10765 10768 10769     9 
10753 10765 10768 10770     9 
10753 10765 10768 10771     9 
10766 10765 10768 10769     9 
10766 10765 10768 10770     9 
10766 10765 10768 10771     9 
10767 10765 10768 10769     9 
10767 10765 10768 10770     9 
10767 10765 10768 10771     9 
10765 10768 10771 10772     9 
10765 10768 10771 10773     9 
10765 10768 10771 10774     9 
10769 10768 10771 10772     9 
10769 10768 10771 10773     9 
10769 10768 10771 10774     9 
10770 10768 10771 10772     9 
10770 10768 10771 10773     9 
10770 10768 10771 10774     9 
10768 10771 10774 10775     9 
10768 10771 10774 10776     9 
10768 10771 10774 10777     9 
10772 10771 10774 10775     9 
10772 10771 10774 10776     9 
10772 10771 10774 10777     9 
10773 10771 10774 10775     9 
10773 10771 10774 10776     9 
10773 10771 10774 10777     9 
10771 10774 10777 10778     9 
10771 10774 10777 10779     9 
10771 10774 10777 10780     9 
10775 10774 10777 10778     9 
10775 10774 10777 10779     9 
10775 10774 10777 10780     9 
10776 10774 10777 10778     9 
10776 10774 10777 10779     9 
10776 10774 10777 10780     9 
10774 10777 10780 10781     9 
10774 10777 10780 10782     9 
10774 10777 10780 10783     9 
10778 10777 10780 10781     9 
10778 10777 10780 10782     9 
10778 10777 10780 10783     9 
10779 10777 10780 10781     9 
10779 10777 10780 10782     9 
10779 10777 10780 10783     9 
10777 10780 10783 10784     9 
10777 10780 10783 10785     9 
10781 10780 10783 10784     9 
10781 10780 10783 10785     9 
10782 10780 10783 10784     9 
10782 10780 10783 10785     9 
10780 10783 10785 10786     9 
10780 10783 10785 10787     9 
10784 10783 10785 10786     9 
10784 10783 10785 10787     9 
10783 10785 10787 10788     9 
10783 10785 10787 10789     9 
10783 10785 10787 10790     9 
10786 10785 10787 10788     9 
10786 10785 10787 10789     9 
10786 10785 10787 10790     9 
10785 10787 10790 10791     9 
10785 10787 10790 10792     9 
10785 10787 10790 10793     9 
10788 10787 10790 10791     9 
10788 10787 10790 10792     9 
10788 10787 10790 10793     9 
10789 10787 10790 10791     9 
10789 10787 10790 10792     9 
10789 10787 10790 10793     9 
10787 10790 10793 10794     9 
10787 10790 10793 10795     9 
10787 10790 10793 10796     9 
10791 10790 10793 10794     9 
10791 10790 10793 10795     9 
10791 10790 10793 10796     9 
10792 10790 10793 10794     9 
10792 10790 10793 10795     9 
10792 10790 10793 10796     9 
10790 10793 10796 10797     9 
10790 10793 10796 10798     9 
10790 10793 10796 10799     9 
10794 10793 10796 10797     9 
10794 10793 10796 10798     9 
10794 10793 10796 10799     9 
10795 10793 10796 10797     9 
10795 10793 10796 10798     9 
10795 10793 10796 10799     9 
10793 10796 10799 10800     9 
10793 10796 10799 10801     9 
10793 10796 10799 10802     9 
10797 10796 10799 10800     9 
10797 10796 10799 10801     9 
10797 10796 10799 10802     9 
10798 10796 10799 10800     9 
10798 10796 10799 10801     9 
10798 10796 10799 10802     9 
10796 10799 10802 10803     9 
10796 10799 10802 10804     9 
10796 10799 10802 10805     9 
10800 10799 10802 10803     9 
10800 10799 10802 10804     9 
10800 10799 10802 10805     9 
10801 10799 10802 10803     9 
10801 10799 10802 10804     9 
10801 10799 10802 10805     9 
10799 10802 10805 10806     9 
10799 10802 10805 10807     9 
10799 10802 10805 10808     9 
10803 10802 10805 10806     9 
10803 10802 10805 10807     9 
10803 10802 10805 10808     9 
10804 10802 10805 10806     9 
10804 10802 10805 10807     9 
10804 10802 10805 10808     9 
10802 10805 10808 10809     9 
10802 10805 10808 10810     9 
10802 10805 10808 10811     9 
10806 10805 10808 10809     9 
10806 10805 10808 10810     9 
10806 10805 10808 10811     9 
10807 10805 10808 10809     9 
10807 10805 10808 10810     9 
10807 10805 10808 10811     9 
10762 10812 10815 10816     9 
10762 10812 10815 10817     9 
10762 10812 10815 10818     9 
10813 10812 10815 10816     9 
10813 10812 10815 10817     9 
10813 10812 10815 10818     9 
10814 10812 10815 10816     9 
10814 10812 10815 10817     9 
10814 10812 10815 10818     9 
10812 10815 10818 10819     9 
10812 10815 10818 10820     9 
10812 10815 10818 10821     9 
10816 10815 10818 10819     9 
10816 10815 10818 10820     9 
10816 10815 10818 10821     9 
10817 10815 10818 10819     9 
10817 10815 10818 10820     9 
10817 10815 10818 10821     9 
10815 10818 10821 10822     9 
10815 10818 10821 10823     9 
10815 10818 10821 10824     9 
10819 10818 10821 10822     9 
10819 10818 10821 10823     9 
10819 10818 10821 10824     9 
10820 10818 10821 10822     9 
10820 10818 10821 10823     9 
10820 10818 10821 10824     9 
10818 10821 10824 10825     9 
10818 10821 10824 10826     9 
10818 10821 10824 10827     9 
10822 10821 10824 10825     9 
10822 10821 10824 10826     9 
10822 10821 10824 10827     9 
10823 10821 10824 10825     9 
10823 10821 10824 10826     9 
10823 10821 10824 10827     9 
10821 10824 10827 10828     9 
10821 10824 10827 10829     9 
10821 10824 10827 10830     9 
10825 10824 10827 10828     9 
10825 10824 10827 10829     9 
10825 10824 10827 10830     9 
10826 10824 10827 10828     9 
10826 10824 10827 10829     9 
10826 10824 10827 10830     9 
10824 10827 10830 10831     9 
10824 10827 10830 10832     9 
10824 10827 10830 10833     9 
10828 10827 10830 10831     9 
10828 10827 10830 10832     9 
10828 10827 10830 10833     9 
10829 10827 10830 10831     9 
10829 10827 10830 10832     9 
10829 10827 10830 10833     9 
10827 10830 10833 10834     9 
10827 10830 10833 10835     9 
10827 10830 10833 10836     9 
10831 10830 10833 10834     9 
10831 10830 10833 10835     9 
10831 10830 10833 10836     9 
10832 10830 10833 10834     9 
10832 10830 10833 10835     9 
10832 10830 10833 10836     9 
10830 10833 10836 10837     9 
10830 10833 10836 10838     9 
10830 10833 10836 10839     9 
10834 10833 10836 10837     9 
10834 10833 10836 10838     9 
10834 10833 10836 10839     9 
10835 10833 10836 10837     9 
10835 10833 10836 10838     9 
10835 10833 10836 10839     9 
10833 10836 10839 10840     9 
10833 10836 10839 10841     9 
10833 10836 10839 10842     9 
10837 10836 10839 10840     9 
10837 10836 10839 10841     9 
10837 10836 10839 10842     9 
10838 10836 10839 10840     9 
10838 10836 10839 10841     9 
10838 10836 10839 10842     9 
10836 10839 10842 10843     9 
10836 10839 10842 10844     9 
10836 10839 10842 10845     9 
10840 10839 10842 10843     9 
10840 10839 10842 10844     9 
10840 10839 10842 10845     9 
10841 10839 10842 10843     9 
10841 10839 10842 10844     9 
10841 10839 10842 10845     9 
10839 10842 10845 10846     9 
10839 10842 10845 10847     9 
10839 10842 10845 10848     9 
10843 10842 10845 10846     9 
10843 10842 10845 10847     9 
10843 10842 10845 10848     9 
10844 10842 10845 10846     9 
10844 10842 10845 10847     9 
10844 10842 10845 10848     9 
10842 10845 10848 10849     9 
10842 10845 10848 10850     9 
10842 10845 10848 10851     9 
10846 10845 10848 10849     9 
10846 10845 10848 10850     9 
10846 10845 10848 10851     9 
10847 10845 10848 10849     9 
10847 10845 10848 10850     9 
10847 10845 10848 10851     9 
10845 10848 10851 10852     9 
10845 10848 10851 10853     9 
10845 10848 10851 10854     9 
10849 10848 10851 10852     9 
10849 10848 10851 10853     9 
10849 10848 10851 10854     9 
10850 10848 10851 10852     9 
10850 10848 10851 10853     9 
10850 10848 10851 10854     9 
10859 10855 10856 10857     9 
10859 10855 10856 10858     9 
10859 10855 10856 10871     9 
10863 10855 10856 10857     9 
10863 10855 10856 10858     9 
10863 10855 10856 10871     9 
10867 10855 10856 10857     9 
10867 10855 10856 10858     9 
10867 10855 10856 10871     9 
10856 10855 10859 10860     9 
10856 10855 10859 10861     9 
10856 10855 10859 10862     9 
10863 10855 10859 10860     9 
10863 10855 10859 10861     9 
10863 10855 10859 10862     9 
10867 10855 10859 10860     9 
10867 10855 10859 10861     9 
10867 10855 10859 10862     9 
10856 10855 10863 10864     9 
10856 10855 10863 10865     9 
10856 10855 10863 10866     9 
10859 10855 10863 10864     9 
10859 10855 10863 10865     9 
10859 10855 10863 10866     9 
10867 10855 10863 10864     9 
10867 10855 10863 10865     9 
10867 10855 10863 10866     9 
10856 10855 10867 10868     9 
10856 10855 10867 10869     9 
10856 10855 10867 10870     9 
10859 10855 10867 10868     9 
10859 10855 10867 10869     9 
10859 10855 10867 10870     9 
10863 10855 10867 10868     9 
10863 10855 10867 10869     9 
10863 10855 10867 10870     9 
10855 10856 10871 10872     9 
10855 10856 10871 10873     9 
10855 10856 10871 10877     9 
10857 10856 10871 10872     9 
10857 10856 10871 10873     9 
10857 10856 10871 10877     9 
10858 10856 10871 10872     9 
10858 10856 10871 10873     9 
10858 10856 10871 10877     9 
10856 10871 10877 10874     9 
10872 10871 10877 10874     9 
10873 10871 10877 10874     9 
10875 10874 10877 10871     9 
10876 10874 10877 10871     9 
10878 10874 10877 10871     9 
10875 10874 10878 10879     9 
10876 10874 10878 10879     9 
10877 10874 10878 10879     9 
10874 10878 10879 10880     9 
10874 10878 10879 10881     9 
10874 10878 10879 10882     9 
10878 10879 10882 10883     9 
10878 10879 10882 10884     9 
10878 10879 10882 10890     9 
10880 10879 10882 10883     9 
10880 10879 10882 10884     9 
10880 10879 10882 10890     9 
10881 10879 10882 10883     9 
10881 10879 10882 10884     9 
10881 10879 10882 10890     9 
10879 10882 10884 10885     9 
10883 10882 10884 10885     9 
10890 10882 10884 10885     9 
10879 10882 10890 10891     9 
10879 10882 10890 10892     9 
10879 10882 10890 10893     9 
10883 10882 10890 10891     9 
10883 10882 10890 10892     9 
10883 10882 10890 10893     9 
10884 10882 10890 10891     9 
10884 10882 10890 10892     9 
10884 10882 10890 10893     9 
10882 10884 10885 10886     9 
10882 10884 10885 10887     9 
10884 10885 10887 10888     9 
10884 10885 10887 10889     9 
10884 10885 10887 10899     9 
10886 10885 10887 10888     9 
10886 10885 10887 10889     9 
10886 10885 10887 10899     9 
10885 10887 10899 10900     9 
10885 10887 10899 10901     9 
10885 10887 10899 10902     9 
10888 10887 10899 10900     9 
10888 10887 10899 10901     9 
10888 10887 10899 10902     9 
10889 10887 10899 10900     9 
10889 10887 10899 10901     9 
10889 10887 10899 10902     9 
10882 10890 10893 10894     9 
10891 10890 10893 10894     9 
10892 10890 10893 10894     9 
10890 10893 10894 10895     9 
10890 10893 10894 10896     9 
10893 10894 10896 10897     9 
10893 10894 10896 10898     9 
10893 10894 10896 10946     9 
10895 10894 10896 10897     9 
10895 10894 10896 10898     9 
10895 10894 10896 10946     9 
10894 10896 10946 10947     9 
10894 10896 10946 10948     9 
10894 10896 10946 10949     9 
10897 10896 10946 10947     9 
10897 10896 10946 10948     9 
10897 10896 10946 10949     9 
10898 10896 10946 10947     9 
10898 10896 10946 10948     9 
10898 10896 10946 10949     9 
10887 10899 10902 10903     9 
10887 10899 10902 10904     9 
10887 10899 10902 10905     9 
10900 10899 10902 10903     9 
10900 10899 10902 10904     9 
10900 10899 10902 10905     9 
10901 10899 10902 10903     9 
10901 10899 10902 10904     9 
10901 10899 10902 10905     9 
10899 10902 10905 10906     9 
10899 10902 10905 10907     9 
10899 10902 10905 10908     9 
10903 10902 10905 10906     9 
10903 10902 10905 10907     9 
10903 10902 10905 10908     9 
10904 10902 10905 10906     9 
10904 10902 10905 10907     9 
10904 10902 10905 10908     9 
10902 10905 10908 10909     9 
10902 10905 10908 10910     9 
10902 10905 10908 10911     9 
10906 10905 10908 10909     9 
10906 10905 10908 10910     9 
10906 10905 10908 10911     9 
10907 10905 10908 10909     9 
10907 10905 10908 10910     9 
10907 10905 10908 10911     9 
10905 10908 10911 10912     9 
10905 10908 10911 10913     9 
10905 10908 10911 10914     9 
10909 10908 10911 10912     9 
10909 10908 10911 10913     9 
10909 10908 10911 10914     9 
10910 10908 10911 10912     9 
10910 10908 10911 10913     9 
10910 10908 10911 10914     9 
10908 10911 10914 10915     9 
10908 10911 10914 10916     9 
10908 10911 10914 10917     9 
10912 10911 10914 10915     9 
10912 10911 10914 10916     9 
10912 10911 10914 10917     9 
10913 10911 10914 10915     9 
10913 10911 10914 10916     9 
10913 10911 10914 10917     9 
10911 10914 10917 10918     9 
10911 10914 10917 10919     9 
10915 10914 10917 10918     9 
10915 10914 10917 10919     9 
10916 10914 10917 10918     9 
10916 10914 10917 10919     9 
10914 10917 10919 10920     9 
10914 10917 10919 10921     9 
10918 10917 10919 10920     9 
10918 10917 10919 10921     9 
10917 10919 10921 10922     9 
10917 10919 10921 10923     9 
10917 10919 10921 10924     9 
10920 10919 10921 10922     9 
10920 10919 10921 10923     9 
10920 10919 10921 10924     9 
10919 10921 10924 10925     9 
10919 10921 10924 10926     9 
10919 10921 10924 10927     9 
10922 10921 10924 10925     9 
10922 10921 10924 10926     9 
10922 10921 10924 10927     9 
10923 10921 10924 10925     9 
10923 10921 10924 10926     9 
10923 10921 10924 10927     9 
10921 10924 10927 10928     9 
10921 10924 10927 10929     9 
10921 10924 10927 10930     9 
10925 10924 10927 10928     9 
10925 10924 10927 10929     9 
10925 10924 10927 10930     9 
10926 10924 10927 10928     9 
10926 10924 10927 10929     9 
10926 10924 10927 10930     9 
10924 10927 10930 10931     9 
10924 10927 10930 10932     9 
10924 10927 10930 10933     9 
10928 10927 10930 10931     9 
10928 10927 10930 10932     9 
10928 10927 10930 10933     9 
10929 10927 10930 10931     9 
10929 10927 10930 10932     9 
10929 10927 10930 10933     9 
10927 10930 10933 10934     9 
10927 10930 10933 10935     9 
10927 10930 10933 10936     9 
10931 10930 10933 10934     9 
10931 10930 10933 10935     9 
10931 10930 10933 10936     9 
10932 10930 10933 10934     9 
10932 10930 10933 10935     9 
10932 10930 10933 10936     9 
10930 10933 10936 10937     9 
10930 10933 10936 10938     9 
10930 10933 10936 10939     9 
10934 10933 10936 10937     9 
10934 10933 10936 10938     9 
10934 10933 10936 10939     9 
10935 10933 10936 10937     9 
10935 10933 10936 10938     9 
10935 10933 10936 10939     9 
10933 10936 10939 10940     9 
10933 10936 10939 10941     9 
10933 10936 10939 10942     9 
10937 10936 10939 10940     9 
10937 10936 10939 10941     9 
10937 10936 10939 10942     9 
10938 10936 10939 10940     9 
10938 10936 10939 10941     9 
10938 10936 10939 10942     9 
10936 10939 10942 10943     9 
10936 10939 10942 10944     9 
10936 10939 10942 10945     9 
10940 10939 10942 10943     9 
10940 10939 10942 10944     9 
10940 10939 10942 10945     9 
10941 10939 10942 10943     9 
10941 10939 10942 10944     9 
10941 10939 10942 10945     9 
10896 10946 10949 10950     9 
10896 10946 10949 10951     9 
10896 10946 10949 10952     9 
10947 10946 10949 10950     9 
10947 10946 10949 10951     9 
10947 10946 10949 10952     9 
10948 10946 10949 10950     9 
10948 10946 10949 10951     9 
10948 10946 10949 10952     9 
10946 10949 10952 10953     9 
10946 10949 10952 10954     9 
10946 10949 10952 10955     9 
10950 10949 10952 10953     9 
10950 10949 10952 10954     9 
10950 10949 10952 10955     9 
10951 10949 10952 10953     9 
10951 10949 10952 10954     9 
10951 10949 10952 10955     9 
10949 10952 10955 10956     9 
10949 10952 10955 10957     9 
10949 10952 10955 10958     9 
10953 10952 10955 10956     9 
10953 10952 10955 10957     9 
10953 10952 10955 10958     9 
10954 10952 10955 10956     9 
10954 10952 10955 10957     9 
10954 10952 10955 10958     9 
10952 10955 10958 10959     9 
10952 10955 10958 10960     9 
10952 10955 10958 10961     9 
10956 10955 10958 10959     9 
10956 10955 10958 10960     9 
10956 10955 10958 10961     9 
10957 10955 10958 10959     9 
10957 10955 10958 10960     9 
10957 10955 10958 10961     9 
10955 10958 10961 10962     9 
10955 10958 10961 10963     9 
10955 10958 10961 10964     9 
10959 10958 10961 10962     9 
10959 10958 10961 10963     9 
10959 10958 10961 10964     9 
10960 10958 10961 10962     9 
10960 10958 10961 10963     9 
10960 10958 10961 10964     9 
10958 10961 10964 10965     9 
10958 10961 10964 10966     9 
10958 10961 10964 10967     9 
10962 10961 10964 10965     9 
10962 10961 10964 10966     9 
10962 10961 10964 10967     9 
10963 10961 10964 10965     9 
10963 10961 10964 10966     9 
10963 10961 10964 10967     9 
10961 10964 10967 10968     9 
10961 10964 10967 10969     9 
10961 10964 10967 10970     9 
10965 10964 10967 10968     9 
10965 10964 10967 10969     9 
10965 10964 10967 10970     9 
10966 10964 10967 10968     9 
10966 10964 10967 10969     9 
10966 10964 10967 10970     9 
10964 10967 10970 10971     9 
10964 10967 10970 10972     9 
10964 10967 10970 10973     9 
10968 10967 10970 10971     9 
10968 10967 10970 10972     9 
10968 10967 10970 10973     9 
10969 10967 10970 10971     9 
10969 10967 10970 10972     9 
10969 10967 10970 10973     9 
10967 10970 10973 10974     9 
10967 10970 10973 10975     9 
10967 10970 10973 10976     9 
10971 10970 10973 10974     9 
10971 10970 10973 10975     9 
10971 10970 10973 10976     9 
10972 10970 10973 10974     9 
10972 10970 10973 10975     9 
10972 10970 10973 10976     9 
10970 10973 10976 10977     9 
10970 10973 10976 10978     9 
10970 10973 10976 10979     9 
10974 10973 10976 10977     9 
10974 10973 10976 10978     9 
10974 10973 10976 10979     9 
10975 10973 10976 10977     9 
10975 10973 10976 10978     9 
10975 10973 10976 10979     9 
10973 10976 10979 10980     9 
10973 10976 10979 10981     9 
10973 10976 10979 10982     9 
10977 10976 10979 10980     9 
10977 10976 10979 10981     9 
10977 10976 10979 10982     9 
10978 10976 10979 10980     9 
10978 10976 10979 10981     9 
10978 10976 10979 10982     9 
10976 10979 10982 10983     9 
10976 10979 10982 10984     9 
10976 10979 10982 10985     9 
10980 10979 10982 10983     9 
10980 10979 10982 10984     9 
10980 10979 10982 10985     9 
10981 10979 10982 10983     9 
10981 10979 10982 10984     9 
10981 10979 10982 10985     9 
10979 10982 10985 10986     9 
10979 10982 10985 10987     9 
10979 10982 10985 10988     9 
10983 10982 10985 10986     9 
10983 10982 10985 10987     9 
10983 10982 10985 10988     9 
10984 10982 10985 10986     9 
10984 10982 10985 10987     9 
10984 10982 10985 10988     9 
10993 10989 10990 10991     9 
10993 10989 10990 10992     9 
10993 10989 10990 11005     9 
10997 10989 10990 10991     9 
10997 10989 10990 10992     9 
10997 10989 10990 11005     9 
11001 10989 10990 10991     9 
11001 10989 10990 10992     9 
11001 10989 10990 11005     9 
10990 10989 10993 10994     9 
10990 10989 10993 10995     9 
10990 10989 10993 10996     9 
10997 10989 10993 10994     9 
10997 10989 10993 10995     9 
10997 10989 10993 10996     9 
11001 10989 10993 10994     9 
11001 10989 10993 10995     9 
11001 10989 10993 10996     9 
10990 10989 10997 10998     9 
10990 10989 10997 10999     9 
10990 10989 10997 11000     9 
10993 10989 10997 10998     9 
10993 10989 10997 10999     9 
10993 10989 10997 11000     9 
11001 10989 10997 10998     9 
11001 10989 10997 10999     9 
11001 10989 10997 11000     9 
10990 10989 11001 11002     9 
10990 10989 11001 11003     9 
10990 10989 11001 11004     9 
10993 10989 11001 11002     9 
10993 10989 11001 11003     9 
10993 10989 11001 11004     9 
10997 10989 11001 11002     9 
10997 10989 11001 11003     9 
10997 10989 11001 11004     9 
10989 10990 11005 11006     9 
10989 10990 11005 11007     9 
10989 10990 11005 11011     9 
10991 10990 11005 11006     9 
10991 10990 11005 11007     9 
10991 10990 11005 11011     9 
10992 10990 11005 11006     9 
10992 10990 11005 11007     9 
10992 10990 11005 11011     9 
10990 11005 11011 11008     9 
11006 11005 11011 11008     9 
11007 11005 11011 11008     9 
11009 11008 11011 11005     9 
11010 11008 11011 11005     9 
11012 11008 11011 11005     9 
11009 11008 11012 11013     9 
11010 11008 11012 11013     9 
11011 11008 11012 11013     9 
11008 11012 11013 11014     9 
11008 11012 11013 11015     9 
11008 11012 11013 11016     9 
11012 11013 11016 11017     9 
11012 11013 11016 11018     9 
11012 11013 11016 11024     9 
11014 11013 11016 11017     9 
11014 11013 11016 11018     9 
11014 11013 11016 11024     9 
11015 11013 11016 11017     9 
11015 11013 11016 11018     9 
11015 11013 11016 11024     9 
11013 11016 11018 11019     9 
11017 11016 11018 11019     9 
11024 11016 11018 11019     9 
11013 11016 11024 11025     9 
11013 11016 11024 11026     9 
11013 11016 11024 11027     9 
11017 11016 11024 11025     9 
11017 11016 11024 11026     9 
11017 11016 11024 11027     9 
11018 11016 11024 11025     9 
11018 11016 11024 11026     9 
11018 11016 11024 11027     9 
11016 11018 11019 11020     9 
11016 11018 11019 11021     9 
11018 11019 11021 11022     9 
11018 11019 11021 11023     9 
11018 11019 11021 11033     9 
11020 11019 11021 11022     9 
11020 11019 11021 11023     9 
11020 11019 11021 11033     9 
11019 11021 11033 11034     9 
11019 11021 11033 11035     9 
11019 11021 11033 11036     9 
11022 11021 11033 11034     9 
11022 11021 11033 11035     9 
11022 11021 11033 11036     9 
11023 11021 11033 11034     9 
11023 11021 11033 11035     9 
11023 11021 11033 11036     9 
11016 11024 11027 11028     9 
11025 11024 11027 11028     9 
11026 11024 11027 11028     9 
11024 11027 11028 11029     9 
11024 11027 11028 11030     9 
11027 11028 11030 11031     9 
11027 11028 11030 11032     9 
11027 11028 11030 11080     9 
11029 11028 11030 11031     9 
11029 11028 11030 11032     9 
11029 11028 11030 11080     9 
11028 11030 11080 11081     9 
11028 11030 11080 11082     9 
11028 11030 11080 11083     9 
11031 11030 11080 11081     9 
11031 11030 11080 11082     9 
11031 11030 11080 11083     9 
11032 11030 11080 11081     9 
11032 11030 11080 11082     9 
11032 11030 11080 11083     9 
11021 11033 11036 11037     9 
11021 11033 11036 11038     9 
11021 11033 11036 11039     9 
11034 11033 11036 11037     9 
11034 11033 11036 11038     9 
11034 11033 11036 11039     9 
11035 11033 11036 11037     9 
11035 11033 11036 11038     9 
11035 11033 11036 11039     9 
11033 11036 11039 11040     9 
11033 11036 11039 11041     9 
11033 11036 11039 11042     9 
11037 11036 11039 11040     9 
11037 11036 11039 11041     9 
11037 11036 11039 11042     9 
11038 11036 11039 11040     9 
11038 11036 11039 11041     9 
11038 11036 11039 11042     9 
11036 11039 11042 11043     9 
11036 11039 11042 11044     9 
11036 11039 11042 11045     9 
11040 11039 11042 11043     9 
11040 11039 11042 11044     9 
11040 11039 11042 11045     9 
11041 11039 11042 11043     9 
11041 11039 11042 11044     9 
11041 11039 11042 11045     9 
11039 11042 11045 11046     9 
11039 11042 11045 11047     9 
11039 11042 11045 11048     9 
11043 11042 11045 11046     9 
11043 11042 11045 11047     9 
11043 11042 11045 11048     9 
11044 11042 11045 11046     9 
11044 11042 11045 11047     9 
11044 11042 11045 11048     9 
11042 11045 11048 11049     9 
11042 11045 11048 11050     9 
11042 11045 11048 11051     9 
11046 11045 11048 11049     9 
11046 11045 11048 11050     9 
11046 11045 11048 11051     9 
11047 11045 11048 11049     9 
11047 11045 11048 11050     9 
11047 11045 11048 11051     9 
11045 11048 11051 11052     9 
11045 11048 11051 11053     9 
11049 11048 11051 11052     9 
11049 11048 11051 11053     9 
11050 11048 11051 11052     9 
11050 11048 11051 11053     9 
11048 11051 11053 11054     9 
11048 11051 11053 11055     9 
11052 11051 11053 11054     9 
11052 11051 11053 11055     9 
11051 11053 11055 11056     9 
11051 11053 11055 11057     9 
11051 11053 11055 11058     9 
11054 11053 11055 11056     9 
11054 11053 11055 11057     9 
11054 11053 11055 11058     9 
11053 11055 11058 11059     9 
11053 11055 11058 11060     9 
11053 11055 11058 11061     9 
11056 11055 11058 11059     9 
11056 11055 11058 11060     9 
11056 11055 11058 11061     9 
11057 11055 11058 11059     9 
11057 11055 11058 11060     9 
11057 11055 11058 11061     9 
11055 11058 11061 11062     9 
11055 11058 11061 11063     9 
11055 11058 11061 11064     9 
11059 11058 11061 11062     9 
11059 11058 11061 11063     9 
11059 11058 11061 11064     9 
11060 11058 11061 11062     9 
11060 11058 11061 11063     9 
11060 11058 11061 11064     9 
11058 11061 11064 11065     9 
11058 11061 11064 11066     9 
11058 11061 11064 11067     9 
11062 11061 11064 11065     9 
11062 11061 11064 11066     9 
11062 11061 11064 11067     9 
11063 11061 11064 11065     9 
11063 11061 11064 11066     9 
11063 11061 11064 11067     9 
11061 11064 11067 11068     9 
11061 11064 11067 11069     9 
11061 11064 11067 11070     9 
11065 11064 11067 11068     9 
11065 11064 11067 11069     9 
11065 11064 11067 11070     9 
11066 11064 11067 11068     9 
11066 11064 11067 11069     9 
11066 11064 11067 11070     9 
11064 11067 11070 11071     9 
11064 11067 11070 11072     9 
11064 11067 11070 11073     9 
11068 11067 11070 11071     9 
11068 11067 11070 11072     9 
11068 11067 11070 11073     9 
11069 11067 11070 11071     9 
11069 11067 11070 11072     9 
11069 11067 11070 11073     9 
11067 11070 11073 11074     9 
11067 11070 11073 11075     9 
11067 11070 11073 11076     9 
11071 11070 11073 11074     9 
11071 11070 11073 11075     9 
11071 11070 11073 11076     9 
11072 11070 11073 11074     9 
11072 11070 11073 11075     9 
11072 11070 11073 11076     9 
11070 11073 11076 11077     9 
11070 11073 11076 11078     9 
11070 11073 11076 11079     9 
11074 11073 11076 11077     9 
11074 11073 11076 11078     9 
11074 11073 11076 11079     9 
11075 11073 11076 11077     9 
11075 11073 11076 11078     9 
11075 11073 11076 11079     9 
11030 11080 11083 11084     9 
11030 11080 11083 11085     9 
11030 11080 11083 11086     9 
11081 11080 11083 11084     9 
11081 11080 11083 11085     9 
11081 11080 11083 11086     9 
11082 11080 11083 11084     9 
11082 11080 11083 11085     9 
11082 11080 11083 11086     9 
11080 11083 11086 11087     9 
11080 11083 11086 11088     9 
11080 11083 11086 11089     9 
11084 11083 11086 11087     9 
11084 11083 11086 11088     9 
11084 11083 11086 11089     9 
11085 11083 11086 11087     9 
11085 11083 11086 11088     9 
11085 11083 11086 11089     9 
11083 11086 11089 11090     9 
11083 11086 11089 11091     9 
11083 11086 11089 11092     9 
11087 11086 11089 11090     9 
11087 11086 11089 11091     9 
11087 11086 11089 11092     9 
11088 11086 11089 11090     9 
11088 11086 11089 11091     9 
11088 11086 11089 11092     9 
11086 11089 11092 11093     9 
11086 11089 11092 11094     9 
11086 11089 11092 11095     9 
11090 11089 11092 11093     9 
11090 11089 11092 11094     9 
11090 11089 11092 11095     9 
11091 11089 11092 11093     9 
11091 11089 11092 11094     9 
11091 11089 11092 11095     9 
11089 11092 11095 11096     9 
11089 11092 11095 11097     9 
11089 11092 11095 11098     9 
11093 11092 11095 11096     9 
11093 11092 11095 11097     9 
11093 11092 11095 11098     9 
11094 11092 11095 11096     9 
11094 11092 11095 11097     9 
11094 11092 11095 11098     9 
11092 11095 11098 11099     9 
11092 11095 11098 11100     9 
11092 11095 11098 11101     9 
11096 11095 11098 11099     9 
11096 11095 11098 11100     9 
11096 11095 11098 11101     9 
11097 11095 11098 11099     9 
11097 11095 11098 11100     9 
11097 11095 11098 11101     9 
11095 11098 11101 11102     9 
11095 11098 11101 11103     9 
11095 11098 11101 11104     9 
11099 11098 11101 11102     9 
11099 11098 11101 11103     9 
11099 11098 11101 11104     9 
11100 11098 11101 11102     9 
11100 11098 11101 11103     9 
11100 11098 11101 11104     9 
11098 11101 11104 11105     9 
11098 11101 11104 11106     9 
11098 11101 11104 11107     9 
11102 11101 11104 11105     9 
11102 11101 11104 11106     9 
11102 11101 11104 11107     9 
11103 11101 11104 11105     9 
11103 11101 11104 11106     9 
11103 11101 11104 11107     9 
11101 11104 11107 11108     9 
11101 11104 11107 11109     9 
11101 11104 11107 11110     9 
11105 11104 11107 11108     9 
11105 11104 11107 11109     9 
11105 11104 11107 11110     9 
11106 11104 11107 11108     9 
11106 11104 11107 11109     9 
11106 11104 11107 11110     9 
11104 11107 11110 11111     9 
11104 11107 11110 11112     9 
11104 11107 11110 11113     9 
11108 11107 11110 11111     9 
11108 11107 11110 11112     9 
11108 11107 11110 11113     9 
11109 11107 11110 11111     9 
11109 11107 11110 11112     9 
11109 11107 11110 11113     9 
11107 11110 11113 11114     9 
11107 11110 11113 11115     9 
11107 11110 11113 11116     9 
11111 11110 11113 11114     9 
11111 11110 11113 11115     9 
11111 11110 11113 11116     9 
11112 11110 11113 11114     9 
11112 11110 11113 11115     9 
11112 11110 11113 11116     9 
11110 11113 11116 11117     9 
11110 11113 11116 11118     9 
11110 11113 11116 11119     9 
11114 11113 11116 11117     9 
11114 11113 11116 11118     9 
11114 11113 11116 11119     9 
11115 11113 11116 11117     9 
11115 11113 11116 11118     9 
11115 11113 11116 11119     9 
11113 11116 11119 11120     9 
11113 11116 11119 11121     9 
11113 11116 11119 11122     9 
11117 11116 11119 11120     9 
11117 11116 11119 11121     9 
11117 11116 11119 11122     9 
11118 11116 11119 11120     9 
11118 11116 11119 11121     9 
11118 11116 11119 11122     9 
11127 11123 11124 11125     9 
11127 11123 11124 11126     9 
11127 11123 11124 11139     9 
11131 11123 11124 11125     9 
11131 11123 11124 11126     9 
11131 11123 11124 11139     9 
11135 11123 11124 11125     9 
11135 11123 11124 11126     9 
11135 11123 11124 11139     9 
11124 11123 11127 11128     9 
11124 11123 11127 11129     9 
11124 11123 11127 11130     9 
11131 11123 11127 11128     9 
11131 11123 11127 11129     9 
11131 11123 11127 11130     9 
11135 11123 11127 11128     9 
11135 11123 11127 11129     9 
11135 11123 11127 11130     9 
11124 11123 11131 11132     9 
11124 11123 11131 11133     9 
11124 11123 11131 11134     9 
11127 11123 11131 11132     9 
11127 11123 11131 11133     9 
11127 11123 11131 11134     9 
11135 11123 11131 11132     9 
11135 11123 11131 11133     9 
11135 11123 11131 11134     9 
11124 11123 11135 11136     9 
11124 11123 11135 11137     9 
11124 11123 11135 11138     9 
11127 11123 11135 11136     9 
11127 11123 11135 11137     9 
11127 11123 11135 11138     9 
11131 11123 11135 11136     9 
11131 11123 11135 11137     9 
11131 11123 11135 11138     9 
11123 11124 11139 11140     9 
11123 11124 11139 11141     9 
11123 11124 11139 11145     9 
11125 11124 11139 11140     9 
11125 11124 11139 11141     9 
11125 11124 11139 11145     9 
11126 11124 11139 11140     9 
11126 11124 11139 11141     9 
11126 11124 11139 11145     9 
11124 11139 11145 11142     9 
11140 11139 11145 11142     9 
11141 11139 11145 11142     9 
11143 11142 11145 11139     9 
11144 11142 11145 11139     9 
11146 11142 11145 11139     9 
11143 11142 11146 11147     9 
11144 11142 11146 11147     9 
11145 11142 11146 11147     9 
11142 11146 11147 11148     9 
11142 11146 11147 11149     9 
11142 11146 11147 11150     9 
11146 11147 11150 11151     9 
11146 11147 11150 11152     9 
11146 11147 11150 11158     9 
11148 11147 11150 11151     9 
11148 11147 11150 11152     9 
11148 11147 11150 11158     9 
11149 11147 11150 11151     9 
11149 11147 11150 11152     9 
11149 11147 11150 11158     9 
11147 11150 11152 11153     9 
11151 11150 11152 11153     9 
11158 11150 11152 11153     9 
11147 11150 11158 11159     9 
11147 11150 11158 11160     9 
11147 11150 11158 11161     9 
11151 11150 11158 11159     9 
11151 11150 11158 11160     9 
11151 11150 11158 11161     9 
11152 11150 11158 11159     9 
11152 11150 11158 11160     9 
11152 11150 11158 11161     9 
11150 11152 11153 11154     9 
11150 11152 11153 11155     9 
11152 11153 11155 11156     9 
11152 11153 11155 11157     9 
11152 11153 11155 11167     9 
11154 11153 11155 11156     9 
11154 11153 11155 11157     9 
11154 11153 11155 11167     9 
11153 11155 11167 11168     9 
11153 11155 11167 11169     9 
11153 11155 11167 11170     9 
11156 11155 11167 11168     9 
11156 11155 11167 11169     9 
11156 11155 11167 11170     9 
11157 11155 11167 11168     9 
11157 11155 11167 11169     9 
11157 11155 11167 11170     9 
11150 11158 11161 11162     9 
11159 11158 11161 11162     9 
11160 11158 11161 11162     9 
11158 11161 11162 11163     9 
11158 11161 11162 11164     9 
11161 11162 11164 11165     9 
11161 11162 11164 11166     9 
11161 11162 11164 11214     9 
11163 11162 11164 11165     9 
11163 11162 11164 11166     9 
11163 11162 11164 11214     9 
11162 11164 11214 11215     9 
11162 11164 11214 11216     9 
11162 11164 11214 11217     9 
11165 11164 11214 11215     9 
11165 11164 11214 11216     9 
11165 11164 11214 11217     9 
11166 11164 11214 11215     9 
11166 11164 11214 11216     9 
11166 11164 11214 11217     9 
11155 11167 11170 11171     9 
11155 11167 11170 11172     9 
11155 11167 11170 11173     9 
11168 11167 11170 11171     9 
11168 11167 11170 11172     9 
11168 11167 11170 11173     9 
11169 11167 11170 11171     9 
11169 11167 11170 11172     9 
11169 11167 11170 11173     9 
11167 11170 11173 11174     9 
11167 11170 11173 11175     9 
11167 11170 11173 11176     9 
11171 11170 11173 11174     9 
11171 11170 11173 11175     9 
11171 11170 11173 11176     9 
11172 11170 11173 11174     9 
11172 11170 11173 11175     9 
11172 11170 11173 11176     9 
11170 11173 11176 11177     9 
11170 11173 11176 11178     9 
11170 11173 11176 11179     9 
11174 11173 11176 11177     9 
11174 11173 11176 11178     9 
11174 11173 11176 11179     9 
11175 11173 11176 11177     9 
11175 11173 11176 11178     9 
11175 11173 11176 11179     9 
11173 11176 11179 11180     9 
11173 11176 11179 11181     9 
11173 11176 11179 11182     9 
11177 11176 11179 11180     9 
11177 11176 11179 11181     9 
11177 11176 11179 11182     9 
11178 11176 11179 11180     9 
11178 11176 11179 11181     9 
11178 11176 11179 11182     9 
11176 11179 11182 11183     9 
11176 11179 11182 11184     9 
11176 11179 11182 11185     9 
11180 11179 11182 11183     9 
11180 11179 11182 11184     9 
11180 11179 11182 11185     9 
11181 11179 11182 11183     9 
11181 11179 11182 11184     9 
11181 11179 11182 11185     9 
11179 11182 11185 11186     9 
11179 11182 11185 11187     9 
11183 11182 11185 11186     9 
11183 11182 11185 11187     9 
11184 11182 11185 11186     9 
11184 11182 11185 11187     9 
11182 11185 11187 11188     9 
11182 11185 11187 11189     9 
11186 11185 11187 11188     9 
11186 11185 11187 11189     9 
11185 11187 11189 11190     9 
11185 11187 11189 11191     9 
11185 11187 11189 11192     9 
11188 11187 11189 11190     9 
11188 11187 11189 11191     9 
11188 11187 11189 11192     9 
11187 11189 11192 11193     9 
11187 11189 11192 11194     9 
11187 11189 11192 11195     9 
11190 11189 11192 11193     9 
11190 11189 11192 11194     9 
11190 11189 11192 11195     9 
11191 11189 11192 11193     9 
11191 11189 11192 11194     9 
11191 11189 11192 11195     9 
11189 11192 11195 11196     9 
11189 11192 11195 11197     9 
11189 11192 11195 11198     9 
11193 11192 11195 11196     9 
11193 11192 11195 11197     9 
11193 11192 11195 11198     9 
11194 11192 11195 11196     9 
11194 11192 11195 11197     9 
11194 11192 11195 11198     9 
11192 11195 11198 11199     9 
11192 11195 11198 11200     9 
11192 11195 11198 11201     9 
11196 11195 11198 11199     9 
11196 11195 11198 11200     9 
11196 11195 11198 11201     9 
11197 11195 11198 11199     9 
11197 11195 11198 11200     9 
11197 11195 11198 11201     9 
11195 11198 11201 11202     9 
11195 11198 11201 11203     9 
11195 11198 11201 11204     9 
11199 11198 11201 11202     9 
11199 11198 11201 11203     9 
11199 11198 11201 11204     9 
11200 11198 11201 11202     9 
11200 11198 11201 11203     9 
11200 11198 11201 11204     9 
11198 11201 11204 11205     9 
11198 11201 11204 11206     9 
11198 11201 11204 11207     9 
11202 11201 11204 11205     9 
11202 11201 11204 11206     9 
11202 11201 11204 11207     9 
11203 11201 11204 11205     9 
11203 11201 11204 11206     9 
11203 11201 11204 11207     9 
11201 11204 11207 11208     9 
11201 11204 11207 11209     9 
11201 11204 11207 11210     9 
11205 11204 11207 11208     9 
11205 11204 11207 11209     9 
11205 11204 11207 11210     9 
11206 11204 11207 11208     9 
11206 11204 11207 11209     9 
11206 11204 11207 11210     9 
11204 11207 11210 11211     9 
11204 11207 11210 11212     9 
11204 11207 11210 11213     9 
11208 11207 11210 11211     9 
11208 11207 11210 11212     9 
11208 11207 11210 11213     9 
11209 11207 11210 11211     9 
11209 11207 11210 11212     9 
11209 11207 11210 11213     9 
11164 11214 11217 11218     9 
11164 11214 11217 11219     9 
11164 11214 11217 11220     9 
11215 11214 11217 11218     9 
11215 11214 11217 11219     9 
11215 11214 11217 11220     9 
11216 11214 11217 11218     9 
11216 11214 11217 11219     9 
11216 11214 11217 11220     9 
11214 11217 11220 11221     9 
11214 11217 11220 11222     9 
11214 11217 11220 11223     9 
11218 11217 11220 11221     9 
11218 11217 11220 11222     9 
11218 11217 11220 11223     9 
11219 11217 11220 11221     9 
11219 11217 11220 11222     9 
11219 11217 11220 11223     9 
11217 11220 11223 11224     9 
11217 11220 11223 11225     9 
11217 11220 11223 11226     9 
11221 11220 11223 11224     9 
11221 11220 11223 11225     9 
11221 11220 11223 11226     9 
11222 11220 11223 11224     9 
11222 11220 11223 11225     9 
11222 11220 11223 11226     9 
11220 11223 11226 11227     9 
11220 11223 11226 11228     9 
11220 11223 11226 11229     9 
11224 11223 11226 11227     9 
11224 11223 11226 11228     9 
11224 11223 11226 11229     9 
11225 11223 11226 11227     9 
11225 11223 11226 11228     9 
11225 11223 11226 11229     9 
11223 11226 11229 11230     9 
11223 11226 11229 11231     9 
11223 11226 11229 11232     9 
11227 11226 11229 11230     9 
11227 11226 11229 11231     9 
11227 11226 11229 11232     9 
11228 11226 11229 11230     9 
11228 11226 11229 11231     9 
11228 11226 11229 11232     9 
11226 11229 11232 11233     9 
11226 11229 11232 11234     9 
11226 11229 11232 11235     9 
11230 11229 11232 11233     9 
11230 11229 11232 11234     9 
11230 11229 11232 11235     9 
11231 11229 11232 11233     9 
11231 11229 11232 11234     9 
11231 11229 11232 11235     9 
11229 11232 11235 11236     9 
11229 11232 11235 11237     9 
11229 11232 11235 11238     9 
11233 11232 11235 11236     9 
11233 11232 11235 11237     9 
11233 11232 11235 11238     9 
11234 11232 11235 11236     9 
11234 11232 11235 11237     9 
11234 11232 11235 11238     9 
11232 11235 11238 11239     9 
11232 11235 11238 11240     9 
11232 11235 11238 11241     9 
11236 11235 11238 11239     9 
11236 11235 11238 11240     9 
11236 11235 11238 11241     9 
11237 11235 11238 11239     9 
11237 11235 11238 11240     9 
11237 11235 11238 11241     9 
11235 11238 11241 11242     9 
11235 11238 11241 11243     9 
11235 11238 11241 11244     9 
11239 11238 11241 11242     9 
11239 11238 11241 11243     9 
11239 11238 11241 11244     9 
11240 11238 11241 11242     9 
11240 11238 11241 11243     9 
11240 11238 11241 11244     9 
11238 11241 11244 11245     9 
11238 11241 11244 11246     9 
11238 11241 11244 11247     9 
11242 11241 11244 11245     9 
11242 11241 11244 11246     9 
11242 11241 11244 11247     9 
11243 11241 11244 11245     9 
11243 11241 11244 11246     9 
11243 11241 11244 11247     9 
11241 11244 11247 11248     9 
11241 11244 11247 11249     9 
11241 11244 11247 11250     9 
11245 11244 11247 11248     9 
11245 11244 11247 11249     9 
11245 11244 11247 11250     9 
11246 11244 11247 11248     9 
11246 11244 11247 11249     9 
11246 11244 11247 11250     9 
11244 11247 11250 11251     9 
11244 11247 11250 11252     9 
11244 11247 11250 11253     9 
11248 11247 11250 11251     9 
11248 11247 11250 11252     9 
11248 11247 11250 11253     9 
11249 11247 11250 11251     9 
11249 11247 11250 11252     9 
11249 11247 11250 11253     9 
11247 11250 11253 11254     9 
11247 11250 11253 11255     9 
11247 11250 11253 11256     9 
11251 11250 11253 11254     9 
11251 11250 11253 11255     9 
11251 11250 11253 11256     9 
11252 11250 11253 11254     9 
11252 11250 11253 11255     9 
11252 11250 11253 11256     9 
11261 11257 11258 11259     9 
11261 11257 11258 11260     9 
11261 11257 11258 11273     9 
11265 11257 11258 11259     9 
11265 11257 11258 11260     9 
11265 11257 11258 11273     9 
11269 11257 11258 11259     9 
11269 11257 11258 11260     9 
11269 11257 11258 11273     9 
11258 11257 11261 11262     9 
11258 11257 11261 11263     9 
11258 11257 11261 11264     9 
11265 11257 11261 11262     9 
11265 11257 11261 11263     9 
11265 11257 11261 11264     9 
11269 11257 11261 11262     9 
11269 11257 11261 11263     9 
11269 11257 11261 11264     9 
11258 11257 11265 11266     9 
11258 11257 11265 11267     9 
11258 11257 11265 11268     9 
11261 11257 11265 11266     9 
11261 11257 11265 11267     9 
11261 11257 11265 11268     9 
11269 11257 11265 11266     9 
11269 11257 11265 11267     9 
11269 11257 11265 11268     9 
11258 11257 11269 11270     9 
11258 11257 11269 11271     9 
11258 11257 11269 11272     9 
11261 11257 11269 11270     9 
11261 11257 11269 11271     9 
11261 11257 11269 11272     9 
11265 11257 11269 11270     9 
11265 11257 11269 11271     9 
11265 11257 11269 11272     9 
11257 11258 11273 11274     9 
11257 11258 11273 11275     9 
11257 11258 11273 11279     9 
11259 11258 11273 11274     9 
11259 11258 11273 11275     9 
11259 11258 11273 11279     9 
11260 11258 11273 11274     9 
11260 11258 11273 11275     9 
11260 11258 11273 11279     9 
11258 11273 11279 11276     9 
11274 11273 11279 11276     9 
11275 11273 11279 11276     9 
11277 11276 11279 11273     9 
11278 11276 11279 11273     9 
11280 11276 11279 11273     9 
11277 11276 11280 11281     9 
11278 11276 11280 11281     9 
11279 11276 11280 11281     9 
11276 11280 11281 11282     9 
11276 11280 11281 11283     9 
11276 11280 11281 11284     9 
11280 11281 11284 11285     9 
11280 11281 11284 11286     9 
11280 11281 11284 11292     9 
11282 11281 11284 11285     9 
11282 11281 11284 11286     9 
11282 11281 11284 11292     9 
11283 11281 11284 11285     9 
11283 11281 11284 11286     9 
11283 11281 11284 11292     9 
11281 11284 11286 11287     9 
11285 11284 11286 11287     9 
11292 11284 11286 11287     9 
11281 11284 11292 11293     9 
11281 11284 11292 11294     9 
11281 11284 11292 11295     9 
11285 11284 11292 11293     9 
11285 11284 11292 11294     9 
11285 11284 11292 11295     9 
11286 11284 11292 11293     9 
11286 11284 11292 11294     9 
11286 11284 11292 11295     9 
11284 11286 11287 11288     9 
11284 11286 11287 11289     9 
11286 11287 11289 11290     9 
11286 11287 11289 11291     9 
11286 11287 11289 11301     9 
11288 11287 11289 11290     9 
11288 11287 11289 11291     9 
11288 11287 11289 11301     9 
11287 11289 11301 11302     9 
11287 11289 11301 11303     9 
11287 11289 11301 11304     9 
11290 11289 11301 11302     9 
11290 11289 11301 11303     9 
11290 11289 11301 11304     9 
11291 11289 11301 11302     9 
11291 11289 11301 11303     9 
11291 11289 11301 11304     9 
11284 11292 11295 11296     9 
11293 11292 11295 11296     9 
11294 11292 11295 11296     9 
11292 11295 11296 11297     9 
11292 11295 11296 11298     9 
11295 11296 11298 11299     9 
11295 11296 11298 11300     9 
11295 11296 11298 11348     9 
11297 11296 11298 11299     9 
11297 11296 11298 11300     9 
11297 11296 11298 11348     9 
11296 11298 11348 11349     9 
11296 11298 11348 11350     9 
11296 11298 11348 11351     9 
11299 11298 11348 11349     9 
11299 11298 11348 11350     9 
11299 11298 11348 11351     9 
11300 11298 11348 11349     9 
11300 11298 11348 11350     9 
11300 11298 11348 11351     9 
11289 11301 11304 11305     9 
11289 11301 11304 11306     9 
11289 11301 11304 11307     9 
11302 11301 11304 11305     9 
11302 11301 11304 11306     9 
11302 11301 11304 11307     9 
11303 11301 11304 11305     9 
11303 11301 11304 11306     9 
11303 11301 11304 11307     9 
11301 11304 11307 11308     9 
11301 11304 11307 11309     9 
11301 11304 11307 11310     9 
11305 11304 11307 11308     9 
11305 11304 11307 11309     9 
11305 11304 11307 11310     9 
11306 11304 11307 11308     9 
11306 11304 11307 11309     9 
11306 11304 11307 11310     9 
11304 11307 11310 11311     9 
11304 11307 11310 11312     9 
11304 11307 11310 11313     9 
11308 11307 11310 11311     9 
11308 11307 11310 11312     9 
11308 11307 11310 11313     9 
11309 11307 11310 11311     9 
11309 11307 11310 11312     9 
11309 11307 11310 11313     9 
11307 11310 11313 11314     9 
11307 11310 11313 11315     9 
11307 11310 11313 11316     9 
11311 11310 11313 11314     9 
11311 11310 11313 11315     9 
11311 11310 11313 11316     9 
11312 11310 11313 11314     9 
11312 11310 11313 11315     9 
11312 11310 11313 11316     9 
11310 11313 11316 11317     9 
11310 11313 11316 11318     9 
11310 11313 11316 11319     9 
11314 11313 11316 11317     9 
11314 11313 11316 11318     9 
11314 11313 11316 11319     9 
11315 11313 11316 11317     9 
11315 11313 11316 11318     9 
11315 11313 11316 11319     9 
11313 11316 11319 11320     9 
11313 11316 11319 11321     9 
11317 11316 11319 11320     9 
11317 11316 11319 11321     9 
11318 11316 11319 11320     9 
11318 11316 11319 11321     9 
11316 11319 11321 11322     9 
11316 11319 11321 11323     9 
11320 11319 11321 11322     9 
11320 11319 11321 11323     9 
11319 11321 11323 11324     9 
11319 11321 11323 11325     9 
11319 11321 11323 11326     9 
11322 11321 11323 11324     9 
11322 11321 11323 11325     9 
11322 11321 11323 11326     9 
11321 11323 11326 11327     9 
11321 11323 11326 11328     9 
11321 11323 11326 11329     9 
11324 11323 11326 11327     9 
11324 11323 11326 11328     9 
11324 11323 11326 11329     9 
11325 11323 11326 11327     9 
11325 11323 11326 11328     9 
11325 11323 11326 11329     9 
11323 11326 11329 11330     9 
11323 11326 11329 11331     9 
11323 11326 11329 11332     9 
11327 11326 11329 11330     9 
11327 11326 11329 11331     9 
11327 11326 11329 11332     9 
11328 11326 11329 11330     9 
11328 11326 11329 11331     9 
11328 11326 11329 11332     9 
11326 11329 11332 11333     9 
11326 11329 11332 11334     9 
11326 11329 11332 11335     9 
11330 11329 11332 11333     9 
11330 11329 11332 11334     9 
11330 11329 11332 11335     9 
11331 11329 11332 11333     9 
11331 11329 11332 11334     9 
11331 11329 11332 11335     9 
11329 11332 11335 11336     9 
11329 11332 11335 11337     9 
11329 11332 11335 11338     9 
11333 11332 11335 11336     9 
11333 11332 11335 11337     9 
11333 11332 11335 11338     9 
11334 11332 11335 11336     9 
11334 11332 11335 11337     9 
11334 11332 11335 11338     9 
11332 11335 11338 11339     9 
11332 11335 11338 11340     9 
11332 11335 11338 11341     9 
11336 11335 11338 11339     9 
11336 11335 11338 11340     9 
11336 11335 11338 11341     9 
11337 11335 11338 11339     9 
11337 11335 11338 11340     9 
11337 11335 11338 11341     9 
11335 11338 11341 11342     9 
11335 11338 11341 11343     9 
11335 11338 11341 11344     9 
11339 11338 11341 11342     9 
11339 11338 11341 11343     9 
11339 11338 11341 11344     9 
11340 11338 11341 11342     9 
11340 11338 11341 11343     9 
11340 11338 11341 11344     9 
11338 11341 11344 11345     9 
11338 11341 11344 11346     9 
11338 11341 11344 11347     9 
11342 11341 11344 11345     9 
11342 11341 11344 11346     9 
11342 11341 11344 11347     9 
11343 11341 11344 11345     9 
11343 11341 11344 11346     9 
11343 11341 11344 11347     9 
11298 11348 11351 11352     9 
11298 11348 11351 11353     9 
11298 11348 11351 11354     9 
11349 11348 11351 11352     9 
11349 11348 11351 11353     9 
11349 11348 11351 11354     9 
11350 11348 11351 11352     9 
11350 11348 11351 11353     9 
11350 11348 11351 11354     9 
11348 11351 11354 11355     9 
11348 11351 11354 11356     9 
11348 11351 11354 11357     9 
11352 11351 11354 11355     9 
11352 11351 11354 11356     9 
11352 11351 11354 11357     9 
11353 11351 11354 11355     9 
11353 11351 11354 11356     9 
11353 11351 11354 11357     9 
11351 11354 11357 11358     9 
11351 11354 11357 11359     9 
11351 11354 11357 11360     9 
11355 11354 11357 11358     9 
11355 11354 11357 11359     9 
11355 11354 11357 11360     9 
11356 11354 11357 11358     9 
11356 11354 11357 11359     9 
11356 11354 11357 11360     9 
11354 11357 11360 11361     9 
11354 11357 11360 11362     9 
11354 11357 11360 11363     9 
11358 11357 11360 11361     9 
11358 11357 11360 11362     9 
11358 11357 11360 11363     9 
11359 11357 11360 11361     9 
11359 11357 11360 11362     9 
11359 11357 11360 11363     9 
11357 11360 11363 11364     9 
11357 11360 11363 11365     9 
11357 11360 11363 11366     9 
11361 11360 11363 11364     9 
11361 11360 11363 11365     9 
11361 11360 11363 11366     9 
11362 11360 11363 11364     9 
11362 11360 11363 11365     9 
11362 11360 11363 11366     9 
11360 11363 11366 11367     9 
11360 11363 11366 11368     9 
11360 11363 11366 11369     9 
11364 11363 11366 11367     9 
11364 11363 11366 11368     9 
11364 11363 11366 11369     9 
11365 11363 11366 11367     9 
11365 11363 11366 11368     9 
11365 11363 11366 11369     9 
11363 11366 11369 11370     9 
11363 11366 11369 11371     9 
11363 11366 11369 11372     9 
11367 11366 11369 11370     9 
11367 11366 11369 11371     9 
11367 11366 11369 11372     9 
11368 11366 11369 11370     9 
11368 11366 11369 11371     9 
11368 11366 11369 11372     9 
11366 11369 11372 11373     9 
11366 11369 11372 11374     9 
11366 11369 11372 11375     9 
11370 11369 11372 11373     9 
11370 11369 11372 11374     9 
11370 11369 11372 11375     9 
11371 11369 11372 11373     9 
11371 11369 11372 11374     9 
11371 11369 11372 11375     9 
11369 11372 11375 11376     9 
11369 11372 11375 11377     9 
11369 11372 11375 11378     9 
11373 11372 11375 11376     9 
11373 11372 11375 11377     9 
11373 11372 11375 11378     9 
11374 11372 11375 11376     9 
11374 11372 11375 11377     9 
11374 11372 11375 11378     9 
11372 11375 11378 11379     9 
11372 11375 11378 11380     9 
11372 11375 11378 11381     9 
11376 11375 11378 11379     9 
11376 11375 11378 11380     9 
11376 11375 11378 11381     9 
11377 11375 11378 11379     9 
11377 11375 11378 11380     9 
11377 11375 11378 11381     9 
11375 11378 11381 11382     9 
11375 11378 11381 11383     9 
11375 11378 11381 11384     9 
11379 11378 11381 11382     9 
11379 11378 11381 11383     9 
11379 11378 11381 11384     9 
11380 11378 11381 11382     9 
11380 11378 11381 11383     9 
11380 11378 11381 11384     9 
11378 11381 11384 11385     9 
11378 11381 11384 11386     9 
11378 11381 11384 11387     9 
11382 11381 11384 11385     9 
11382 11381 11384 11386     9 
11382 11381 11384 11387     9 
11383 11381 11384 11385     9 
11383 11381 11384 11386     9 
11383 11381 11384 11387     9 
11381 11384 11387 11388     9 
11381 11384 11387 11389     9 
11381 11384 11387 11390     9 
11385 11384 11387 11388     9 
11385 11384 11387 11389     9 
11385 11384 11387 11390     9 
11386 11384 11387 11388     9 
11386 11384 11387 11389     9 
11386 11384 11387 11390     9 
11395 11391 11392 11393     9 
11395 11391 11392 11394     9 
11395 11391 11392 11407     9 
11399 11391 11392 11393     9 
11399 11391 11392 11394     9 
11399 11391 11392 11407     9 
11403 11391 11392 11393     9 
11403 11391 11392 11394     9 
11403 11391 11392 11407     9 
11392 11391 11395 11396     9 
11392 11391 11395 11397     9 
11392 11391 11395 11398     9 
11399 11391 11395 11396     9 
11399 11391 11395 11397     9 
11399 11391 11395 11398     9 
11403 11391 11395 11396     9 
11403 11391 11395 11397     9 
11403 11391 11395 11398     9 
11392 11391 11399 11400     9 
11392 11391 11399 11401     9 
11392 11391 11399 11402     9 
11395 11391 11399 11400     9 
11395 11391 11399 11401     9 
11395 11391 11399 11402     9 
11403 11391 11399 11400     9 
11403 11391 11399 11401     9 
11403 11391 11399 11402     9 
11392 11391 11403 11404     9 
11392 11391 11403 11405     9 
11392 11391 11403 11406     9 
11395 11391 11403 11404     9 
11395 11391 11403 11405     9 
11395 11391 11403 11406     9 
11399 11391 11403 11404     9 
11399 11391 11403 11405     9 
11399 11391 11403 11406     9 
11391 11392 11407 11408     9 
11391 11392 11407 11409     9 
11391 11392 11407 11413     9 
11393 11392 11407 11408     9 
11393 11392 11407 11409     9 
11393 11392 11407 11413     9 
11394 11392 11407 11408     9 
11394 11392 11407 11409     9 
11394 11392 11407 11413     9 
11392 11407 11413 11410     9 
11408 11407 11413 11410     9 
11409 11407 11413 11410     9 
11411 11410 11413 11407     9 
11412 11410 11413 11407     9 
11414 11410 11413 11407     9 
11411 11410 11414 11415     9 
11412 11410 11414 11415     9 
11413 11410 11414 11415     9 
11410 11414 11415 11416     9 
11410 11414 11415 11417     9 
11410 11414 11415 11418     9 
11414 11415 11418 11419     9 
11414 11415 11418 11420     9 
11414 11415 11418 11426     9 
11416 11415 11418 11419     9 
11416 11415 11418 11420     9 
11416 11415 11418 11426     9 
11417 11415 11418 11419     9 
11417 11415 11418 11420     9 
11417 11415 11418 11426     9 
11415 11418 11420 11421     9 
11419 11418 11420 11421     9 
11426 11418 11420 11421     9 
11415 11418 11426 11427     9 
11415 11418 11426 11428     9 
11415 11418 11426 11429     9 
11419 11418 11426 11427     9 
11419 11418 11426 11428     9 
11419 11418 11426 11429     9 
11420 11418 11426 11427     9 
11420 11418 11426 11428     9 
11420 11418 11426 11429     9 
11418 11420 11421 11422     9 
11418 11420 11421 11423     9 
11420 11421 11423 11424     9 
11420 11421 11423 11425     9 
11420 11421 11423 11435     9 
11422 11421 11423 11424     9 
11422 11421 11423 11425     9 
11422 11421 11423 11435     9 
11421 11423 11435 11436     9 
11421 11423 11435 11437     9 
11421 11423 11435 11438     9 
11424 11423 11435 11436     9 
11424 11423 11435 11437     9 
11424 11423 11435 11438     9 
11425 11423 11435 11436     9 
11425 11423 11435 11437     9 
11425 11423 11435 11438     9 
11418 11426 11429 11430     9 
11427 11426 11429 11430     9 
11428 11426 11429 11430     9 
11426 11429 11430 11431     9 
11426 11429 11430 11432     9 
11429 11430 11432 11433     9 
11429 11430 11432 11434     9 
11429 11430 11432 11482     9 
11431 11430 11432 11433     9 
11431 11430 11432 11434     9 
11431 11430 11432 11482     9 
11430 11432 11482 11483     9 
11430 11432 11482 11484     9 
11430 11432 11482 11485     9 
11433 11432 11482 11483     9 
11433 11432 11482 11484     9 
11433 11432 11482 11485     9 
11434 11432 11482 11483     9 
11434 11432 11482 11484     9 
11434 11432 11482 11485     9 
11423 11435 11438 11439     9 
11423 11435 11438 11440     9 
11423 11435 11438 11441     9 
11436 11435 11438 11439     9 
11436 11435 11438 11440     9 
11436 11435 11438 11441     9 
11437 11435 11438 11439     9 
11437 11435 11438 11440     9 
11437 11435 11438 11441     9 
11435 11438 11441 11442     9 
11435 11438 11441 11443     9 
11435 11438 11441 11444     9 
11439 11438 11441 11442     9 
11439 11438 11441 11443     9 
11439 11438 11441 11444     9 
11440 11438 11441 11442     9 
11440 11438 11441 11443     9 
11440 11438 11441 11444     9 
11438 11441 11444 11445     9 
11438 11441 11444 11446     9 
11438 11441 11444 11447     9 
11442 11441 11444 11445     9 
11442 11441 11444 11446     9 
11442 11441 11444 11447     9 
11443 11441 11444 11445     9 
11443 11441 11444 11446     9 
11443 11441 11444 11447     9 
11441 11444 11447 11448     9 
11441 11444 11447 11449     9 
11441 11444 11447 11450     9 
11445 11444 11447 11448     9 
11445 11444 11447 11449     9 
11445 11444 11447 11450     9 
11446 11444 11447 11448     9 
11446 11444 11447 11449     9 
11446 11444 11447 11450     9 
11444 11447 11450 11451     9 
11444 11447 11450 11452     9 
11444 11447 11450 11453     9 
11448 11447 11450 11451     9 
11448 11447 11450 11452     9 
11448 11447 11450 11453     9 
11449 11447 11450 11451     9 
11449 11447 11450 11452     9 
11449 11447 11450 11453     9 
11447 11450 11453 11454     9 
11447 11450 11453 11455     9 
11451 11450 11453 11454     9 
11451 11450 11453 11455     9 
11452 11450 11453 11454     9 
11452 11450 11453 11455     9 
11450 11453 11455 11456     9 
11450 11453 11455 11457     9 
11454 11453 11455 11456     9 
11454 11453 11455 11457     9 
11453 11455 11457 11458     9 
11453 11455 11457 11459     9 
11453 11455 11457 11460     9 
11456 11455 11457 11458     9 
11456 11455 11457 11459     9 
11456 11455 11457 11460     9 
11455 11457 11460 11461     9 
11455 11457 11460 11462     9 
11455 11457 11460 11463     9 
11458 11457 11460 11461     9 
11458 11457 11460 11462     9 
11458 11457 11460 11463     9 
11459 11457 11460 11461     9 
11459 11457 11460 11462     9 
11459 11457 11460 11463     9 
11457 11460 11463 11464     9 
11457 11460 11463 11465     9 
11457 11460 11463 11466     9 
11461 11460 11463 11464     9 
11461 11460 11463 11465     9 
11461 11460 11463 11466     9 
11462 11460 11463 11464     9 
11462 11460 11463 11465     9 
11462 11460 11463 11466     9 
11460 11463 11466 11467     9 
11460 11463 11466 11468     9 
11460 11463 11466 11469     9 
11464 11463 11466 11467     9 
11464 11463 11466 11468     9 
11464 11463 11466 11469     9 
11465 11463 11466 11467     9 
11465 11463 11466 11468     9 
11465 11463 11466 11469     9 
11463 11466 11469 11470     9 
11463 11466 11469 11471     9 
11463 11466 11469 11472     9 
11467 11466 11469 11470     9 
11467 11466 11469 11471     9 
11467 11466 11469 11472     9 
11468 11466 11469 11470     9 
11468 11466 11469 11471     9 
11468 11466 11469 11472     9 
11466 11469 11472 11473     9 
11466 11469 11472 11474     9 
11466 11469 11472 11475     9 
11470 11469 11472 11473     9 
11470 11469 11472 11474     9 
11470 11469 11472 11475     9 
11471 11469 11472 11473     9 
11471 11469 11472 11474     9 
11471 11469 11472 11475     9 
11469 11472 11475 11476     9 
11469 11472 11475 11477     9 
11469 11472 11475 11478     9 
11473 11472 11475 11476     9 
11473 11472 11475 11477     9 
11473 11472 11475 11478     9 
11474 11472 11475 11476     9 
11474 11472 11475 11477     9 
11474 11472 11475 11478     9 
11472 11475 11478 11479     9 
11472 11475 11478 11480     9 
11472 11475 11478 11481     9 
11476 11475 11478 11479     9 
11476 11475 11478 11480     9 
11476 11475 11478 11481     9 
11477 11475 11478 11479     9 
11477 11475 11478 11480     9 
11477 11475 11478 11481     9 
11432 11482 11485 11486     9 
11432 11482 11485 11487     9 
11432 11482 11485 11488     9 
11483 11482 11485 11486     9 
11483 11482 11485 11487     9 
11483 11482 11485 11488     9 
11484 11482 11485 11486     9 
11484 11482 11485 11487     9 
11484 11482 11485 11488     9 
11482 11485 11488 11489     9 
11482 11485 11488 11490     9 
11482 11485 11488 11491     9 
11486 11485 11488 11489     9 
11486 11485 11488 11490     9 
11486 11485 11488 11491     9 
11487 11485 11488 11489     9 
11487 11485 11488 11490     9 
11487 11485 11488 11491     9 
11485 11488 11491 11492     9 
11485 11488 11491 11493     9 
11485 11488 11491 11494     9 
11489 11488 11491 11492     9 
11489 11488 11491 11493     9 
11489 11488 11491 11494     9 
11490 11488 11491 11492     9 
11490 11488 11491 11493     9 
11490 11488 11491 11494     9 
11488 11491 11494 11495     9 
11488 11491 11494 11496     9 
11488 11491 11494 11497     9 
11492 11491 11494 11495     9 
11492 11491 11494 11496     9 
11492 11491 11494 11497     9 
11493 11491 11494 11495     9 
11493 11491 11494 11496     9 
11493 11491 11494 11497     9 
11491 11494 11497 11498     9 
11491 11494 11497 11499     9 
11491 11494 11497 11500     9 
11495 11494 11497 11498     9 
11495 11494 11497 11499     9 
11495 11494 11497 11500     9 
11496 11494 11497 11498     9 
11496 11494 11497 11499     9 
11496 11494 11497 11500     9 
11494 11497 11500 11501     9 
11494 11497 11500 11502     9 
11494 11497 11500 11503     9 
11498 11497 11500 11501     9 
11498 11497 11500 11502     9 
11498 11497 11500 11503     9 
11499 11497 11500 11501     9 
11499 11497 11500 11502     9 
11499 11497 11500 11503     9 
11497 11500 11503 11504     9 
11497 11500 11503 11505     9 
11497 11500 11503 11506     9 
11501 11500 11503 11504     9 
11501 11500 11503 11505     9 
11501 11500 11503 11506     9 
11502 11500 11503 11504     9 
11502 11500 11503 11505     9 
11502 11500 11503 11506     9 
11500 11503 11506 11507     9 
11500 11503 11506 11508     9 
11500 11503 11506 11509     9 
11504 11503 11506 11507     9 
11504 11503 11506 11508     9 
11504 11503 11506 11509     9 
11505 11503 11506 11507     9 
11505 11503 11506 11508     9 
11505 11503 11506 11509     9 
11503 11506 11509 11510     9 
11503 11506 11509 11511     9 
11503 11506 11509 11512     9 
11507 11506 11509 11510     9 
11507 11506 11509 11511     9 
11507 11506 11509 11512     9 
11508 11506 11509 11510     9 
11508 11506 11509 11511     9 
11508 11506 11509 11512     9 
11506 11509 11512 11513     9 
11506 11509 11512 11514     9 
11506 11509 11512 11515     9 
11510 11509 11512 11513     9 
11510 11509 11512 11514     9 
11510 11509 11512 11515     9 
11511 11509 11512 11513     9 
11511 11509 11512 11514     9 
11511 11509 11512 11515     9 
11509 11512 11515 11516     9 
11509 11512 11515 11517     9 
11509 11512 11515 11518     9 
11513 11512 11515 11516     9 
11513 11512 11515 11517     9 
11513 11512 11515 11518     9 
11514 11512 11515 11516     9 
11514 11512 11515 11517     9 
11514 11512 11515 11518     9 
11512 11515 11518 11519     9 
11512 11515 11518 11520     9 
11512 11515 11518 11521     9 
11516 11515 11518 11519     9 
11516 11515 11518 11520     9 
11516 11515 11518 11521     9 
11517 11515 11518 11519     9 
11517 11515 11518 11520     9 
11517 11515 11518 11521     9 
11515 11518 11521 11522     9 
11515 11518 11521 11523     9 
11515 11518 11521 11524     9 
11519 11518 11521 11522     9 
11519 11518 11521 11523     9 
11519 11518 11521 11524     9 
11520 11518 11521 11522     9 
11520 11518 11521 11523     9 
11520 11518 11521 11524     9 
11529 11525 11526 11527     9 
11529 11525 11526 11528     9 
11529 11525 11526 11541     9 
11533 11525 11526 11527     9 
11533 11525 11526 11528     9 
11533 11525 11526 11541     9 
11537 11525 11526 11527     9 
11537 11525 11526 11528     9 
11537 11525 11526 11541     9 
11526 11525 11529 11530     9 
11526 11525 11529 11531     9 
11526 11525 11529 11532     9 
11533 11525 11529 11530     9 
11533 11525 11529 11531     9 
11533 11525 11529 11532     9 
11537 11525 11529 11530     9 
11537 11525 11529 11531     9 
11537 11525 11529 11532     9 
11526 11525 11533 11534     9 
11526 11525 11533 11535     9 
11526 11525 11533 11536     9 
11529 11525 11533 11534     9 
11529 11525 11533 11535     9 
11529 11525 11533 11536     9 
11537 11525 11533 11534     9 
11537 11525 11533 11535     9 
11537 11525 11533 11536     9 
11526 11525 11537 11538     9 
11526 11525 11537 11539     9 
11526 11525 11537 11540     9 
11529 11525 11537 11538     9 
11529 11525 11537 11539     9 
11529 11525 11537 11540     9 
11533 11525 11537 11538     9 
11533 11525 11537 11539     9 
11533 11525 11537 11540     9 
11525 11526 11541 11542     9 
11525 11526 11541 11543     9 
11525 11526 11541 11547     9 
11527 11526 11541 11542     9 
11527 11526 11541 11543     9 
11527 11526 11541 11547     9 
11528 11526 11541 11542     9 
11528 11526 11541 11543     9 
11528 11526 11541 11547     9 
11526 11541 11547 11544     9 
11542 11541 11547 11544     9 
11543 11541 11547 11544     9 
11545 11544 11547 11541     9 
11546 11544 11547 11541     9 
11548 11544 11547 11541     9 
11545 11544 11548 11549     9 
11546 11544 11548 11549     9 
11547 11544 11548 11549     9 
11544 11548 11549 11550     9 
11544 11548 11549 11551     9 
11544 11548 11549 11552     9 
11548 11549 11552 11553     9 
11548 11549 11552 11554     9 
11548 11549 11552 11560     9 
11550 11549 11552 11553     9 
11550 11549 11552 11554     9 
11550 11549 11552 11560     9 
11551 11549 11552 11553     9 
11551 11549 11552 11554     9 
11551 11549 11552 11560     9 
11549 11552 11554 11555     9 
11553 11552 11554 11555     9 
11560 11552 11554 11555     9 
11549 11552 11560 11561     9 
11549 11552 11560 11562     9 
11549 11552 11560 11563     9 
11553 11552 11560 11561     9 
11553 11552 11560 11562     9 
11553 11552 11560 11563     9 
11554 11552 11560 11561     9 
11554 11552 11560 11562     9 
11554 11552 11560 11563     9 
11552 11554 11555 11556     9 
11552 11554 11555 11557     9 
11554 11555 11557 11558     9 
11554 11555 11557 11559     9 
11554 11555 11557 11569     9 
11556 11555 11557 11558     9 
11556 11555 11557 11559     9 
11556 11555 11557 11569     9 
11555 11557 11569 11570     9 
11555 11557 11569 11571     9 
11555 11557 11569 11572     9 
11558 11557 11569 11570     9 
11558 11557 11569 11571     9 
11558 11557 11569 11572     9 
11559 11557 11569 11570     9 
11559 11557 11569 11571     9 
11559 11557 11569 11572     9 
11552 11560 11563 11564     9 
11561 11560 11563 11564     9 
11562 11560 11563 11564     9 
11560 11563 11564 11565     9 
11560 11563 11564 11566     9 
11563 11564 11566 11567     9 
11563 11564 11566 11568     9 
11563 11564 11566 11616     9 
11565 11564 11566 11567     9 
11565 11564 11566 11568     9 
11565 11564 11566 11616     9 
11564 11566 11616 11617     9 
11564 11566 11616 11618     9 
11564 11566 11616 11619     9 
11567 11566 11616 11617     9 
11567 11566 11616 11618     9 
11567 11566 11616 11619     9 
11568 11566 11616 11617     9 
11568 11566 11616 11618     9 
11568 11566 11616 11619     9 
11557 11569 11572 11573     9 
11557 11569 11572 11574     9 
11557 11569 11572 11575     9 
11570 11569 11572 11573     9 
11570 11569 11572 11574     9 
11570 11569 11572 11575     9 
11571 11569 11572 11573     9 
11571 11569 11572 11574     9 
11571 11569 11572 11575     9 
11569 11572 11575 11576     9 
11569 11572 11575 11577     9 
11569 11572 11575 11578     9 
11573 11572 11575 11576     9 
11573 11572 11575 11577     9 
11573 11572 11575 11578     9 
11574 11572 11575 11576     9 
11574 11572 11575 11577     9 
11574 11572 11575 11578     9 
11572 11575 11578 11579     9 
11572 11575 11578 11580     9 
11572 11575 11578 11581     9 
11576 11575 11578 11579     9 
11576 11575 11578 11580     9 
11576 11575 11578 11581     9 
11577 11575 11578 11579     9 
11577 11575 11578 11580     9 
11577 11575 11578 11581     9 
11575 11578 11581 11582     9 
11575 11578 11581 11583     9 
11575 11578 11581 11584     9 
11579 11578 11581 11582     9 
11579 11578 11581 11583     9 
11579 11578 11581 11584     9 
11580 11578 11581 11582     9 
11580 11578 11581 11583     9 
11580 11578 11581 11584     9 
11578 11581 11584 11585     9 
11578 11581 11584 11586     9 
11578 11581 11584 11587     9 
11582 11581 11584 11585     9 
11582 11581 11584 11586     9 
11582 11581 11584 11587     9 
11583 11581 11584 11585     9 
11583 11581 11584 11586     9 
11583 11581 11584 11587     9 
11581 11584 11587 11588     9 
11581 11584 11587 11589     9 
11585 11584 11587 11588     9 
11585 11584 11587 11589     9 
11586 11584 11587 11588     9 
11586 11584 11587 11589     9 
11584 11587 11589 11590     9 
11584 11587 11589 11591     9 
11588 11587 11589 11590     9 
11588 11587 11589 11591     9 
11587 11589 11591 11592     9 
11587 11589 11591 11593     9 
11587 11589 11591 11594     9 
11590 11589 11591 11592     9 
11590 11589 11591 11593     9 
11590 11589 11591 11594     9 
11589 11591 11594 11595     9 
11589 11591 11594 11596     9 
11589 11591 11594 11597     9 
11592 11591 11594 11595     9 
11592 11591 11594 11596     9 
11592 11591 11594 11597     9 
11593 11591 11594 11595     9 
11593 11591 11594 11596     9 
11593 11591 11594 11597     9 
11591 11594 11597 11598     9 
11591 11594 11597 11599     9 
11591 11594 11597 11600     9 
11595 11594 11597 11598     9 
11595 11594 11597 11599     9 
11595 11594 11597 11600     9 
11596 11594 11597 11598     9 
11596 11594 11597 11599     9 
11596 11594 11597 11600     9 
11594 11597 11600 11601     9 
11594 11597 11600 11602     9 
11594 11597 11600 11603     9 
11598 11597 11600 11601     9 
11598 11597 11600 11602     9 
11598 11597 11600 11603     9 
11599 11597 11600 11601     9 
11599 11597 11600 11602     9 
11599 11597 11600 11603     9 
11597 11600 11603 11604     9 
11597 11600 11603 11605     9 
11597 11600 11603 11606     9 
11601 11600 11603 11604     9 
11601 11600 11603 11605     9 
11601 11600 11603 11606     9 
11602 11600 11603 11604     9 
11602 11600 11603 11605     9 
11602 11600 11603 11606     9 
11600 11603 11606 11607     9 
11600 11603 11606 11608     9 
11600 11603 11606 11609     9 
11604 11603 11606 11607     9 
11604 11603 11606 11608     9 
11604 11603 11606 11609     9 
11605 11603 11606 11607     9 
11605 11603 11606 11608     9 
11605 11603 11606 11609     9 
11603 11606 11609 11610     9 
11603 11606 11609 11611     9 
11603 11606 11609 11612     9 
11607 11606 11609 11610     9 
11607 11606 11609 11611     9 
11607 11606 11609 11612     9 
11608 11606 11609 11610     9 
11608 11606 11609 11611     9 
11608 11606 11609 11612     9 
11606 11609 11612 11613     9 
11606 11609 11612 11614     9 
11606 11609 11612 11615     9 
11610 11609 11612 11613     9 
11610 11609 11612 11614     9 
11610 11609 11612 11615     9 
11611 11609 11612 11613     9 
11611 11609 11612 11614     9 
11611 11609 11612 11615     9 
11566 11616 11619 11620     9 
11566 11616 11619 11621     9 
11566 11616 11619 11622     9 
11617 11616 11619 11620     9 
11617 11616 11619 11621     9 
11617 11616 11619 11622     9 
11618 11616 11619 11620     9 
11618 11616 11619 11621     9 
11618 11616 11619 11622     9 
11616 11619 11622 11623     9 
11616 11619 11622 11624     9 
11616 11619 11622 11625     9 
11620 11619 11622 11623     9 
11620 11619 11622 11624     9 
11620 11619 11622 11625     9 
11621 11619 11622 11623     9 
11621 11619 11622 11624     9 
11621 11619 11622 11625     9 
11619 11622 11625 11626     9 
11619 11622 11625 11627     9 
11619 11622 11625 11628     9 
11623 11622 11625 11626     9 
11623 11622 11625 11627     9 
11623 11622 11625 11628     9 
11624 11622 11625 11626     9 
11624 11622 11625 11627     9 
11624 11622 11625 11628     9 
11622 11625 11628 11629     9 
11622 11625 11628 11630     9 
11622 11625 11628 11631     9 
11626 11625 11628 11629     9 
11626 11625 11628 11630     9 
11626 11625 11628 11631     9 
11627 11625 11628 11629     9 
11627 11625 11628 11630     9 
11627 11625 11628 11631     9 
11625 11628 11631 11632     9 
11625 11628 11631 11633     9 
11625 11628 11631 11634     9 
11629 11628 11631 11632     9 
11629 11628 11631 11633     9 
11629 11628 11631 11634     9 
11630 11628 11631 11632     9 
11630 11628 11631 11633     9 
11630 11628 11631 11634     9 
11628 11631 11634 11635     9 
11628 11631 11634 11636     9 
11628 11631 11634 11637     9 
11632 11631 11634 11635     9 
11632 11631 11634 11636     9 
11632 11631 11634 11637     9 
11633 11631 11634 11635     9 
11633 11631 11634 11636     9 
11633 11631 11634 11637     9 
11631 11634 11637 11638     9 
11631 11634 11637 11639     9 
11631 11634 11637 11640     9 
11635 11634 11637 11638     9 
11635 11634 11637 11639     9 
11635 11634 11637 11640     9 
11636 11634 11637 11638     9 
11636 11634 11637 11639     9 
11636 11634 11637 11640     9 
11634 11637 11640 11641     9 
11634 11637 11640 11642     9 
11634 11637 11640 11643     9 
11638 11637 11640 11641     9 
11638 11637 11640 11642     9 
11638 11637 11640 11643     9 
11639 11637 11640 11641     9 
11639 11637 11640 11642     9 
11639 11637 11640 11643     9 
11637 11640 11643 11644     9 
11637 11640 11643 11645     9 
11637 11640 11643 11646     9 
11641 11640 11643 11644     9 
11641 11640 11643 11645     9 
11641 11640 11643 11646     9 
11642 11640 11643 11644     9 
11642 11640 11643 11645     9 
11642 11640 11643 11646     9 
11640 11643 11646 11647     9 
11640 11643 11646 11648     9 
11640 11643 11646 11649     9 
11644 11643 11646 11647     9 
11644 11643 11646 11648     9 
11644 11643 11646 11649     9 
11645 11643 11646 11647     9 
11645 11643 11646 11648     9 
11645 11643 11646 11649     9 
11643 11646 11649 11650     9 
11643 11646 11649 11651     9 
11643 11646 11649 11652     9 
11647 11646 11649 11650     9 
11647 11646 11649 11651     9 
11647 11646 11649 11652     9 
11648 11646 11649 11650     9 
11648 11646 11649 11651     9 
11648 11646 11649 11652     9 
11646 11649 11652 11653     9 
11646 11649 11652 11654     9 
11646 11649 11652 11655     9 
11650 11649 11652 11653     9 
11650 11649 11652 11654     9 
11650 11649 11652 11655     9 
11651 11649 11652 11653     9 
11651 11649 11652 11654     9 
11651 11649 11652 11655     9 
11649 11652 11655 11656     9 
11649 11652 11655 11657     9 
11649 11652 11655 11658     9 
11653 11652 11655 11656     9 
11653 11652 11655 11657     9 
11653 11652 11655 11658     9 
11654 11652 11655 11656     9 
11654 11652 11655 11657     9 
11654 11652 11655 11658     9 
11663 11659 11660 11661     9 
11663 11659 11660 11662     9 
11663 11659 11660 11675     9 
11667 11659 11660 11661     9 
11667 11659 11660 11662     9 
11667 11659 11660 11675     9 
11671 11659 11660 11661     9 
11671 11659 11660 11662     9 
11671 11659 11660 11675     9 
11660 11659 11663 11664     9 
11660 11659 11663 11665     9 
11660 11659 11663 11666     9 
11667 11659 11663 11664     9 
11667 11659 11663 11665     9 
11667 11659 11663 11666     9 
11671 11659 11663 11664     9 
11671 11659 11663 11665     9 
11671 11659 11663 11666     9 
11660 11659 11667 11668     9 
11660 11659 11667 11669     9 
11660 11659 11667 11670     9 
11663 11659 11667 11668     9 
11663 11659 11667 11669     9 
11663 11659 11667 11670     9 
11671 11659 11667 11668     9 
11671 11659 11667 11669     9 
11671 11659 11667 11670     9 
11660 11659 11671 11672     9 
11660 11659 11671 11673     9 
11660 11659 11671 11674     9 
11663 11659 11671 11672     9 
11663 11659 11671 11673     9 
11663 11659 11671 11674     9 
11667 11659 11671 11672     9 
11667 11659 11671 11673     9 
11667 11659 11671 11674     9 
11659 11660 11675 11676     9 
11659 11660 11675 11677     9 
11659 11660 11675 11681     9 
11661 11660 11675 11676     9 
11661 11660 11675 11677     9 
11661 11660 11675 11681     9 
11662 11660 11675 11676     9 
11662 11660 11675 11677     9 
11662 11660 11675 11681     9 
11660 11675 11681 11678     9 
11676 11675 11681 11678     9 
11677 11675 11681 11678     9 
11679 11678 11681 11675     9 
11680 11678 11681 11675     9 
11682 11678 11681 11675     9 
11679 11678 11682 11683     9 
11680 11678 11682 11683     9 
11681 11678 11682 11683     9 
11678 11682 11683 11684     9 
11678 11682 11683 11685     9 
11678 11682 11683 11686     9 
11682 11683 11686 11687     9 
11682 11683 11686 11688     9 
11682 11683 11686 11694     9 
11684 11683 11686 11687     9 
11684 11683 11686 11688     9 
11684 11683 11686 11694     9 
11685 11683 11686 11687     9 
11685 11683 11686 11688     9 
11685 11683 11686 11694     9 
11683 11686 11688 11689     9 
11687 11686 11688 11689     9 
11694 11686 11688 11689     9 
11683 11686 11694 11695     9 
11683 11686 11694 11696     9 
11683 11686 11694 11697     9 
11687 11686 11694 11695     9 
11687 11686 11694 11696     9 
11687 11686 11694 11697     9 
11688 11686 11694 11695     9 
11688 11686 11694 11696     9 
11688 11686 11694 11697     9 
11686 11688 11689 11690     9 
11686 11688 11689 11691     9 
11688 11689 11691 11692     9 
11688 11689 11691 11693     9 
11688 11689 11691 11703     9 
11690 11689 11691 11692     9 
11690 11689 11691 11693     9 
11690 11689 11691 11703     9 
11689 11691 11703 11704     9 
11689 11691 11703 11705     9 
11689 11691 11703 11706     9 
11692 11691 11703 11704     9 
11692 11691 11703 11705     9 
11692 11691 11703 11706     9 
11693 11691 11703 11704     9 
11693 11691 11703 11705     9 
11693 11691 11703 11706     9 
11686 11694 11697 11698     9 
11695 11694 11697 11698     9 
11696 11694 11697 11698     9 
11694 11697 11698 11699     9 
11694 11697 11698 11700     9 
11697 11698 11700 11701     9 
11697 11698 11700 11702     9 
11697 11698 11700 11750     9 
11699 11698 11700 11701     9 
11699 11698 11700 11702     9 
11699 11698 11700 11750     9 
11698 11700 11750 11751     9 
11698 11700 11750 11752     9 
11698 11700 11750 11753     9 
11701 11700 11750 11751     9 
11701 11700 11750 11752     9 
11701 11700 11750 11753     9 
11702 11700 11750 11751     9 
11702 11700 11750 11752     9 
11702 11700 11750 11753     9 
11691 11703 11706 11707     9 
11691 11703 11706 11708     9 
11691 11703 11706 11709     9 
11704 11703 11706 11707     9 
11704 11703 11706 11708     9 
11704 11703 11706 11709     9 
11705 11703 11706 11707     9 
11705 11703 11706 11708     9 
11705 11703 11706 11709     9 
11703 11706 11709 11710     9 
11703 11706 11709 11711     9 
11703 11706 11709 11712     9 
11707 11706 11709 11710     9 
11707 11706 11709 11711     9 
11707 11706 11709 11712     9 
11708 11706 11709 11710     9 
11708 11706 11709 11711     9 
11708 11706 11709 11712     9 
11706 11709 11712 11713     9 
11706 11709 11712 11714     9 
11706 11709 11712 11715     9 
11710 11709 11712 11713     9 
11710 11709 11712 11714     9 
11710 11709 11712 11715     9 
11711 11709 11712 11713     9 
11711 11709 11712 11714     9 
11711 11709 11712 11715     9 
11709 11712 11715 11716     9 
11709 11712 11715 11717     9 
11709 11712 11715 11718     9 
11713 11712 11715 11716     9 
11713 11712 11715 11717     9 
11713 11712 11715 11718     9 
11714 11712 11715 11716     9 
11714 11712 11715 11717     9 
11714 11712 11715 11718     9 
11712 11715 11718 11719     9 
11712 11715 11718 11720     9 
11712 11715 11718 11721     9 
11716 11715 11718 11719     9 
11716 11715 11718 11720     9 
11716 11715 11718 11721     9 
11717 11715 11718 11719     9 
11717 11715 11718 11720     9 
11717 11715 11718 11721     9 
11715 11718 11721 11722     9 
11715 11718 11721 11723     9 
11719 11718 11721 11722     9 
11719 11718 11721 11723     9 
11720 11718 11721 11722     9 
11720 11718 11721 11723     9 
11718 11721 11723 11724     9 
11718 11721 11723 11725     9 
11722 11721 11723 11724     9 
11722 11721 11723 11725     9 
11721 11723 11725 11726     9 
11721 11723 11725 11727     9 
11721 11723 11725 11728     9 
11724 11723 11725 11726     9 
11724 11723 11725 11727     9 
11724 11723 11725 11728     9 
11723 11725 11728 11729     9 
11723 11725 11728 11730     9 
11723 11725 11728 11731     9 
11726 11725 11728 11729     9 
11726 11725 11728 11730     9 
11726 11725 11728 11731     9 
11727 11725 11728 11729     9 
11727 11725 11728 11730     9 
11727 11725 11728 11731     9 
11725 11728 11731 11732     9 
11725 11728 11731 11733     9 
11725 11728 11731 11734     9 
11729 11728 11731 11732     9 
11729 11728 11731 11733     9 
11729 11728 11731 11734     9 
11730 11728 11731 11732     9 
11730 11728 11731 11733     9 
11730 11728 11731 11734     9 
11728 11731 11734 11735     9 
11728 11731 11734 11736     9 
11728 11731 11734 11737     9 
11732 11731 11734 11735     9 
11732 11731 11734 11736     9 
11732 11731 11734 11737     9 
11733 11731 11734 11735     9 
11733 11731 11734 11736     9 
11733 11731 11734 11737     9 
11731 11734 11737 11738     9 
11731 11734 11737 11739     9 
11731 11734 11737 11740     9 
11735 11734 11737 11738     9 
11735 11734 11737 11739     9 
11735 11734 11737 11740     9 
11736 11734 11737 11738     9 
11736 11734 11737 11739     9 
11736 11734 11737 11740     9 
11734 11737 11740 11741     9 
11734 11737 11740 11742     9 
11734 11737 11740 11743     9 
11738 11737 11740 11741     9 
11738 11737 11740 11742     9 
11738 11737 11740 11743     9 
11739 11737 11740 11741     9 
11739 11737 11740 11742     9 
11739 11737 11740 11743     9 
11737 11740 11743 11744     9 
11737 11740 11743 11745     9 
11737 11740 11743 11746     9 
11741 11740 11743 11744     9 
11741 11740 11743 11745     9 
11741 11740 11743 11746     9 
11742 11740 11743 11744     9 
11742 11740 11743 11745     9 
11742 11740 11743 11746     9 
11740 11743 11746 11747     9 
11740 11743 11746 11748     9 
11740 11743 11746 11749     9 
11744 11743 11746 11747     9 
11744 11743 11746 11748     9 
11744 11743 11746 11749     9 
11745 11743 11746 11747     9 
11745 11743 11746 11748     9 
11745 11743 11746 11749     9 
11700 11750 11753 11754     9 
11700 11750 11753 11755     9 
11700 11750 11753 11756     9 
11751 11750 11753 11754     9 
11751 11750 11753 11755     9 
11751 11750 11753 11756     9 
11752 11750 11753 11754     9 
11752 11750 11753 11755     9 
11752 11750 11753 11756     9 
11750 11753 11756 11757     9 
11750 11753 11756 11758     9 
11750 11753 11756 11759     9 
11754 11753 11756 11757     9 
11754 11753 11756 11758     9 
11754 11753 11756 11759     9 
11755 11753 11756 11757     9 
11755 11753 11756 11758     9 
11755 11753 11756 11759     9 
11753 11756 11759 11760     9 
11753 11756 11759 11761     9 
11753 11756 11759 11762     9 
11757 11756 11759 11760     9 
11757 11756 11759 11761     9 
11757 11756 11759 11762     9 
11758 11756 11759 11760     9 
11758 11756 11759 11761     9 
11758 11756 11759 11762     9 
11756 11759 11762 11763     9 
11756 11759 11762 11764     9 
11756 11759 11762 11765     9 
11760 11759 11762 11763     9 
11760 11759 11762 11764     9 
11760 11759 11762 11765     9 
11761 11759 11762 11763     9 
11761 11759 11762 11764     9 
11761 11759 11762 11765     9 
11759 11762 11765 11766     9 
11759 11762 11765 11767     9 
11759 11762 11765 11768     9 
11763 11762 11765 11766     9 
11763 11762 11765 11767     9 
11763 11762 11765 11768     9 
11764 11762 11765 11766     9 
11764 11762 11765 11767     9 
11764 11762 11765 11768     9 
11762 11765 11768 11769     9 
11762 11765 11768 11770     9 
11762 11765 11768 11771     9 
11766 11765 11768 11769     9 
11766 11765 11768 11770     9 
11766 11765 11768 11771     9 
11767 11765 11768 11769     9 
11767 11765 11768 11770     9 
11767 11765 11768 11771     9 
11765 11768 11771 11772     9 
11765 11768 11771 11773     9 
11765 11768 11771 11774     9 
11769 11768 11771 11772     9 
11769 11768 11771 11773     9 
11769 11768 11771 11774     9 
11770 11768 11771 11772     9 
11770 11768 11771 11773     9 
11770 11768 11771 11774     9 
11768 11771 11774 11775     9 
11768 11771 11774 11776     9 
11768 11771 11774 11777     9 
11772 11771 11774 11775     9 
11772 11771 11774 11776     9 
11772 11771 11774 11777     9 
11773 11771 11774 11775     9 
11773 11771 11774 11776     9 
11773 11771 11774 11777     9 
11771 11774 11777 11778     9 
11771 11774 11777 11779     9 
11771 11774 11777 11780     9 
11775 11774 11777 11778     9 
11775 11774 11777 11779     9 
11775 11774 11777 11780     9 
11776 11774 11777 11778     9 
11776 11774 11777 11779     9 
11776 11774 11777 11780     9 
11774 11777 11780 11781     9 
11774 11777 11780 11782     9 
11774 11777 11780 11783     9 
11778 11777 11780 11781     9 
11778 11777 11780 11782     9 
11778 11777 11780 11783     9 
11779 11777 11780 11781     9 
11779 11777 11780 11782     9 
11779 11777 11780 11783     9 
11777 11780 11783 11784     9 
11777 11780 11783 11785     9 
11777 11780 11783 11786     9 
11781 11780 11783 11784     9 
11781 11780 11783 11785     9 
11781 11780 11783 11786     9 
11782 11780 11783 11784     9 
11782 11780 11783 11785     9 
11782 11780 11783 11786     9 
11780 11783 11786 11787     9 
11780 11783 11786 11788     9 
11780 11783 11786 11789     9 
11784 11783 11786 11787     9 
11784 11783 11786 11788     9 
11784 11783 11786 11789     9 
11785 11783 11786 11787     9 
11785 11783 11786 11788     9 
11785 11783 11786 11789     9 
11783 11786 11789 11790     9 
11783 11786 11789 11791     9 
11783 11786 11789 11792     9 
11787 11786 11789 11790     9 
11787 11786 11789 11791     9 
11787 11786 11789 11792     9 
11788 11786 11789 11790     9 
11788 11786 11789 11791     9 
11788 11786 11789 11792     9 
11797 11793 11794 11795     9 
11797 11793 11794 11796     9 
11797 11793 11794 11809     9 
11801 11793 11794 11795     9 
11801 11793 11794 11796     9 
11801 11793 11794 11809     9 
11805 11793 11794 11795     9 
11805 11793 11794 11796     9 
11805 11793 11794 11809     9 
11794 11793 11797 11798     9 
11794 11793 11797 11799     9 
11794 11793 11797 11800     9 
11801 11793 11797 11798     9 
11801 11793 11797 11799     9 
11801 11793 11797 11800     9 
11805 11793 11797 11798     9 
11805 11793 11797 11799     9 
11805 11793 11797 11800     9 
11794 11793 11801 11802     9 
11794 11793 11801 11803     9 
11794 11793 11801 11804     9 
11797 11793 11801 11802     9 
11797 11793 11801 11803     9 
11797 11793 11801 11804     9 
11805 11793 11801 11802     9 
11805 11793 11801 11803     9 
11805 11793 11801 11804     9 
11794 11793 11805 11806     9 
11794 11793 11805 11807     9 
11794 11793 11805 11808     9 
11797 11793 11805 11806     9 
11797 11793 11805 11807     9 
11797 11793 11805 11808     9 
11801 11793 11805 11806     9 
11801 11793 11805 11807     9 
11801 11793 11805 11808     9 
11793 11794 11809 11810     9 
11793 11794 11809 11811     9 
11793 11794 11809 11815     9 
11795 11794 11809 11810     9 
11795 11794 11809 11811     9 
11795 11794 11809 11815     9 
11796 11794 11809 11810     9 
11796 11794 11809 11811     9 
11796 11794 11809 11815     9 
11794 11809 11815 11812     9 
11810 11809 11815 11812     9 
11811 11809 11815 11812     9 
11813 11812 11815 11809     9 
11814 11812 11815 11809     9 
11816 11812 11815 11809     9 
11813 11812 11816 11817     9 
11814 11812 11816 11817     9 
11815 11812 11816 11817     9 
11812 11816 11817 11818     9 
11812 11816 11817 11819     9 
11812 11816 11817 11820     9 
11816 11817 11820 11821     9 
11816 11817 11820 11822     9 
11816 11817 11820 11828     9 
11818 11817 11820 11821     9 
11818 11817 11820 11822     9 
11818 11817 11820 11828     9 
11819 11817 11820 11821     9 
11819 11817 11820 11822     9 
11819 11817 11820 11828     9 
11817 11820 11822 11823     9 
11821 11820 11822 11823     9 
11828 11820 11822 11823     9 
11817 11820 11828 11829     9 
11817 11820 11828 11830     9 
11817 11820 11828 11831     9 
11821 11820 11828 11829     9 
11821 11820 11828 11830     9 
11821 11820 11828 11831     9 
11822 11820 11828 11829     9 
11822 11820 11828 11830     9 
11822 11820 11828 11831     9 
11820 11822 11823 11824     9 
11820 11822 11823 11825     9 
11822 11823 11825 11826     9 
11822 11823 11825 11827     9 
11822 11823 11825 11837     9 
11824 11823 11825 11826     9 
11824 11823 11825 11827     9 
11824 11823 11825 11837     9 
11823 11825 11837 11838     9 
11823 11825 11837 11839     9 
11823 11825 11837 11840     9 
11826 11825 11837 11838     9 
11826 11825 11837 11839     9 
11826 11825 11837 11840     9 
11827 11825 11837 11838     9 
11827 11825 11837 11839     9 
11827 11825 11837 11840     9 
11820 11828 11831 11832     9 
11829 11828 11831 11832     9 
11830 11828 11831 11832     9 
11828 11831 11832 11833     9 
11828 11831 11832 11834     9 
11831 11832 11834 11835     9 
11831 11832 11834 11836     9 
11831 11832 11834 11884     9 
11833 11832 11834 11835     9 
11833 11832 11834 11836     9 
11833 11832 11834 11884     9 
11832 11834 11884 11885     9 
11832 11834 11884 11886     9 
11832 11834 11884 11887     9 
11835 11834 11884 11885     9 
11835 11834 11884 11886     9 
11835 11834 11884 11887     9 
11836 11834 11884 11885     9 
11836 11834 11884 11886     9 
11836 11834 11884 11887     9 
11825 11837 11840 11841     9 
11825 11837 11840 11842     9 
11825 11837 11840 11843     9 
11838 11837 11840 11841     9 
11838 11837 11840 11842     9 
11838 11837 11840 11843     9 
11839 11837 11840 11841     9 
11839 11837 11840 11842     9 
11839 11837 11840 11843     9 
11837 11840 11843 11844     9 
11837 11840 11843 11845     9 
11837 11840 11843 11846     9 
11841 11840 11843 11844     9 
11841 11840 11843 11845     9 
11841 11840 11843 11846     9 
11842 11840 11843 11844     9 
11842 11840 11843 11845     9 
11842 11840 11843 11846     9 
11840 11843 11846 11847     9 
11840 11843 11846 11848     9 
11840 11843 11846 11849     9 
11844 11843 11846 11847     9 
11844 11843 11846 11848     9 
11844 11843 11846 11849     9 
11845 11843 11846 11847     9 
11845 11843 11846 11848     9 
11845 11843 11846 11849     9 
11843 11846 11849 11850     9 
11843 11846 11849 11851     9 
11843 11846 11849 11852     9 
11847 11846 11849 11850     9 
11847 11846 11849 11851     9 
11847 11846 11849 11852     9 
11848 11846 11849 11850     9 
11848 11846 11849 11851     9 
11848 11846 11849 11852     9 
11846 11849 11852 11853     9 
11846 11849 11852 11854     9 
11846 11849 11852 11855     9 
11850 11849 11852 11853     9 
11850 11849 11852 11854     9 
11850 11849 11852 11855     9 
11851 11849 11852 11853     9 
11851 11849 11852 11854     9 
11851 11849 11852 11855     9 
11849 11852 11855 11856     9 
11849 11852 11855 11857     9 
11853 11852 11855 11856     9 
11853 11852 11855 11857     9 
11854 11852 11855 11856     9 
11854 11852 11855 11857     9 
11852 11855 11857 11858     9 
11852 11855 11857 11859     9 
11856 11855 11857 11858     9 
11856 11855 11857 11859     9 
11855 11857 11859 11860     9 
11855 11857 11859 11861     9 
11855 11857 11859 11862     9 
11858 11857 11859 11860     9 
11858 11857 11859 11861     9 
11858 11857 11859 11862     9 
11857 11859 11862 11863     9 
11857 11859 11862 11864     9 
11857 11859 11862 11865     9 
11860 11859 11862 11863     9 
11860 11859 11862 11864     9 
11860 11859 11862 11865     9 
11861 11859 11862 11863     9 
11861 11859 11862 11864     9 
11861 11859 11862 11865     9 
11859 11862 11865 11866     9 
11859 11862 11865 11867     9 
11859 11862 11865 11868     9 
11863 11862 11865 11866     9 
11863 11862 11865 11867     9 
11863 11862 11865 11868     9 
11864 11862 11865 11866     9 
11864 11862 11865 11867     9 
11864 11862 11865 11868     9 
11862 11865 11868 11869     9 
11862 11865 11868 11870     9 
11862 11865 11868 11871     9 
11866 11865 11868 11869     9 
11866 11865 11868 11870     9 
11866 11865 11868 11871     9 
11867 11865 11868 11869     9 
11867 11865 11868 11870     9 
11867 11865 11868 11871     9 
11865 11868 11871 11872     9 
11865 11868 11871 11873     9 
11865 11868 11871 11874     9 
11869 11868 11871 11872     9 
11869 11868 11871 11873     9 
11869 11868 11871 11874     9 
11870 11868 11871 11872     9 
11870 11868 11871 11873     9 
11870 11868 11871 11874     9 
11868 11871 11874 11875     9 
11868 11871 11874 11876     9 
11868 11871 11874 11877     9 
11872 11871 11874 11875     9 
11872 11871 11874 11876     9 
11872 11871 11874 11877     9 
11873 11871 11874 11875     9 
11873 11871 11874 11876     9 
11873 11871 11874 11877     9 
11871 11874 11877 11878     9 
11871 11874 11877 11879     9 
11871 11874 11877 11880     9 
11875 11874 11877 11878     9 
11875 11874 11877 11879     9 
11875 11874 11877 11880     9 
11876 11874 11877 11878     9 
11876 11874 11877 11879     9 
11876 11874 11877 11880     9 
11874 11877 11880 11881     9 
11874 11877 11880 11882     9 
11874 11877 11880 11883     9 
11878 11877 11880 11881     9 
11878 11877 11880 11882     9 
11878 11877 11880 11883     9 
11879 11877 11880 11881     9 
11879 11877 11880 11882     9 
11879 11877 11880 11883     9 
11834 11884 11887 11888     9 
11834 11884 11887 11889     9 
11834 11884 11887 11890     9 
11885 11884 11887 11888     9 
11885 11884 11887 11889     9 
11885 11884 11887 11890     9 
11886 11884 11887 11888     9 
11886 11884 11887 11889     9 
11886 11884 11887 11890     9 
11884 11887 11890 11891     9 
11884 11887 11890 11892     9 
11884 11887 11890 11893     9 
11888 11887 11890 11891     9 
11888 11887 11890 11892     9 
11888 11887 11890 11893     9 
11889 11887 11890 11891     9 
11889 11887 11890 11892     9 
11889 11887 11890 11893     9 
11887 11890 11893 11894     9 
11887 11890 11893 11895     9 
11887 11890 11893 11896     9 
11891 11890 11893 11894     9 
11891 11890 11893 11895     9 
11891 11890 11893 11896     9 
11892 11890 11893 11894     9 
11892 11890 11893 11895     9 
11892 11890 11893 11896     9 
11890 11893 11896 11897     9 
11890 11893 11896 11898     9 
11890 11893 11896 11899     9 
11894 11893 11896 11897     9 
11894 11893 11896 11898     9 
11894 11893 11896 11899     9 
11895 11893 11896 11897     9 
11895 11893 11896 11898     9 
11895 11893 11896 11899     9 
11893 11896 11899 11900     9 
11893 11896 11899 11901     9 
11893 11896 11899 11902     9 
11897 11896 11899 11900     9 
11897 11896 11899 11901     9 
11897 11896 11899 11902     9 
11898 11896 11899 11900     9 
11898 11896 11899 11901     9 
11898 11896 11899 11902     9 
11896 11899 11902 11903     9 
11896 11899 11902 11904     9 
11896 11899 11902 11905     9 
11900 11899 11902 11903     9 
11900 11899 11902 11904     9 
11900 11899 11902 11905     9 
11901 11899 11902 11903     9 
11901 11899 11902 11904     9 
11901 11899 11902 11905     9 
11899 11902 11905 11906     9 
11899 11902 11905 11907     9 
11899 11902 11905 11908     9 
11903 11902 11905 11906     9 
11903 11902 11905 11907     9 
11903 11902 11905 11908     9 
11904 11902 11905 11906     9 
11904 11902 11905 11907     9 
11904 11902 11905 11908     9 
11902 11905 11908 11909     9 
11902 11905 11908 11910     9 
11902 11905 11908 11911     9 
11906 11905 11908 11909     9 
11906 11905 11908 11910     9 
11906 11905 11908 11911     9 
11907 11905 11908 11909     9 
11907 11905 11908 11910     9 
11907 11905 11908 11911     9 
11905 11908 11911 11912     9 
11905 11908 11911 11913     9 
11905 11908 11911 11914     9 
11909 11908 11911 11912     9 
11909 11908 11911 11913     9 
11909 11908 11911 11914     9 
11910 11908 11911 11912     9 
11910 11908 11911 11913     9 
11910 11908 11911 11914     9 
11908 11911 11914 11915     9 
11908 11911 11914 11916     9 
11908 11911 11914 11917     9 
11912 11911 11914 11915     9 
11912 11911 11914 11916     9 
11912 11911 11914 11917     9 
11913 11911 11914 11915     9 
11913 11911 11914 11916     9 
11913 11911 11914 11917     9 
11911 11914 11917 11918     9 
11911 11914 11917 11919     9 
11911 11914 11917 11920     9 
11915 11914 11917 11918     9 
11915 11914 11917 11919     9 
11915 11914 11917 11920     9 
11916 11914 11917 11918     9 
11916 11914 11917 11919     9 
11916 11914 11917 11920     9 
11914 11917 11920 11921     9 
11914 11917 11920 11922     9 
11914 11917 11920 11923     9 
11918 11917 11920 11921     9 
11918 11917 11920 11922     9 
11918 11917 11920 11923     9 
11919 11917 11920 11921     9 
11919 11917 11920 11922     9 
11919 11917 11920 11923     9 
11917 11920 11923 11924     9 
11917 11920 11923 11925     9 
11917 11920 11923 11926     9 
11921 11920 11923 11924     9 
11921 11920 11923 11925     9 
11921 11920 11923 11926     9 
11922 11920 11923 11924     9 
11922 11920 11923 11925     9 
11922 11920 11923 11926     9 
11931 11927 11928 11929     9 
11931 11927 11928 11930     9 
11931 11927 11928 11943     9 
11935 11927 11928 11929     9 
11935 11927 11928 11930     9 
11935 11927 11928 11943     9 
11939 11927 11928 11929     9 
11939 11927 11928 11930     9 
11939 11927 11928 11943     9 
11928 11927 11931 11932     9 
11928 11927 11931 11933     9 
11928 11927 11931 11934     9 
11935 11927 11931 11932     9 
11935 11927 11931 11933     9 
11935 11927 11931 11934     9 
11939 11927 11931 11932     9 
11939 11927 11931 11933     9 
11939 11927 11931 11934     9 
11928 11927 11935 11936     9 
11928 11927 11935 11937     9 
11928 11927 11935 11938     9 
11931 11927 11935 11936     9 
11931 11927 11935 11937     9 
11931 11927 11935 11938     9 
11939 11927 11935 11936     9 
11939 11927 11935 11937     9 
11939 11927 11935 11938     9 
11928 11927 11939 11940     9 
11928 11927 11939 11941     9 
11928 11927 11939 11942     9 
11931 11927 11939 11940     9 
11931 11927 11939 11941     9 
11931 11927 11939 11942     9 
11935 11927 11939 11940     9 
11935 11927 11939 11941     9 
11935 11927 11939 11942     9 
11927 11928 11943 11944     9 
11927 11928 11943 11945     9 
11927 11928 11943 11949     9 
11929 11928 11943 11944     9 
11929 11928 11943 11945     9 
11929 11928 11943 11949     9 
11930 11928 11943 11944     9 
11930 11928 11943 11945     9 
11930 11928 11943 11949     9 
11928 11943 11949 11946     9 
11944 11943 11949 11946     9 
11945 11943 11949 11946     9 
11947 11946 11949 11943     9 
11948 11946 11949 11943     9 
11950 11946 11949 11943     9 
11947 11946 11950 11951     9 
11948 11946 11950 11951     9 
11949 11946 11950 11951     9 
11946 11950 11951 11952     9 
11946 11950 11951 11953     9 
11946 11950 11951 11954     9 
11950 11951 11954 11955     9 
11950 11951 11954 11956     9 
11950 11951 11954 11962     9 
11952 11951 11954 11955     9 
11952 11951 11954 11956     9 
11952 11951 11954 11962     9 
11953 11951 11954 11955     9 
11953 11951 11954 11956     9 
11953 11951 11954 11962     9 
11951 11954 11956 11957     9 
11955 11954 11956 11957     9 
11962 11954 11956 11957     9 
11951 11954 11962 11963     9 
11951 11954 11962 11964     9 
11951 11954 11962 11965     9 
11955 11954 11962 11963     9 
11955 11954 11962 11964     9 
11955 11954 11962 11965     9 
11956 11954 11962 11963     9 
11956 11954 11962 11964     9 
11956 11954 11962 11965     9 
11954 11956 11957 11958     9 
11954 11956 11957 11959     9 
11956 11957 11959 11960     9 
11956 11957 11959 11961     9 
11956 11957 11959 11971     9 
11958 11957 11959 11960     9 
11958 11957 11959 11961     9 
11958 11957 11959 11971     9 
11957 11959 11971 11972     9 
11957 11959 11971 11973     9 
11957 11959 11971 11974     9 
11960 11959 11971 11972     9 
11960 11959 11971 11973     9 
11960 11959 11971 11974     9 
11961 11959 11971 11972     9 
11961 11959 11971 11973     9 
11961 11959 11971 11974     9 
11954 11962 11965 11966     9 
11963 11962 11965 11966     9 
11964 11962 11965 11966     9 
11962 11965 11966 11967     9 
11962 11965 11966 11968     9 
11965 11966 11968 11969     9 
11965 11966 11968 11970     9 
11965 11966 11968 12018     9 
11967 11966 11968 11969     9 
11967 11966 11968 11970     9 
11967 11966 11968 12018     9 
11966 11968 12018 12019     9 
11966 11968 12018 12020     9 
11966 11968 12018 12021     9 
11969 11968 12018 12019     9 
11969 11968 12018 12020     9 
11969 11968 12018 12021     9 
11970 11968 12018 12019     9 
11970 11968 12018 12020     9 
11970 11968 12018 12021     9 
11959 11971 11974 11975     9 
11959 11971 11974 11976     9 
11959 11971 11974 11977     9 
11972 11971 11974 11975     9 
11972 11971 11974 11976     9 
11972 11971 11974 11977     9 
11973 11971 11974 11975     9 
11973 11971 11974 11976     9 
11973 11971 11974 11977     9 
11971 11974 11977 11978     9 
11971 11974 11977 11979     9 
11971 11974 11977 11980     9 
11975 11974 11977 11978     9 
11975 11974 11977 11979     9 
11975 11974 11977 11980     9 
11976 11974 11977 11978     9 
11976 11974 11977 11979     9 
11976 11974 11977 11980     9 
11974 11977 11980 11981     9 
11974 11977 11980 11982     9 
11974 11977 11980 11983     9 
11978 11977 11980 11981     9 
11978 11977 11980 11982     9 
11978 11977 11980 11983     9 
11979 11977 11980 11981     9 
11979 11977 11980 11982     9 
11979 11977 11980 11983     9 
11977 11980 11983 11984     9 
11977 11980 11983 11985     9 
11977 11980 11983 11986     9 
11981 11980 11983 11984     9 
11981 11980 11983 11985     9 
11981 11980 11983 11986     9 
11982 11980 11983 11984     9 
11982 11980 11983 11985     9 
11982 11980 11983 11986     9 
11980 11983 11986 11987     9 
11980 11983 11986 11988     9 
11980 11983 11986 11989     9 
11984 11983 11986 11987     9 
11984 11983 11986 11988     9 
11984 11983 11986 11989     9 
11985 11983 11986 11987     9 
11985 11983 11986 11988     9 
11985 11983 11986 11989     9 
11983 11986 11989 11990     9 
11983 11986 11989 11991     9 
11987 11986 11989 11990     9 
11987 11986 11989 11991     9 
11988 11986 11989 11990     9 
11988 11986 11989 11991     9 
11986 11989 11991 11992     9 
11986 11989 11991 11993     9 
11990 11989 11991 11992     9 
11990 11989 11991 11993     9 
11989 11991 11993 11994     9 
11989 11991 11993 11995     9 
11989 11991 11993 11996     9 
11992 11991 11993 11994     9 
11992 11991 11993 11995     9 
11992 11991 11993 11996     9 
11991 11993 11996 11997     9 
11991 11993 11996 11998     9 
11991 11993 11996 11999     9 
11994 11993 11996 11997     9 
11994 11993 11996 11998     9 
11994 11993 11996 11999     9 
11995 11993 11996 11997     9 
11995 11993 11996 11998     9 
11995 11993 11996 11999     9 
11993 11996 11999 12000     9 
11993 11996 11999 12001     9 
11993 11996 11999 12002     9 
11997 11996 11999 12000     9 
11997 11996 11999 12001     9 
11997 11996 11999 12002     9 
11998 11996 11999 12000     9 
11998 11996 11999 12001     9 
11998 11996 11999 12002     9 
11996 11999 12002 12003     9 
11996 11999 12002 12004     9 
11996 11999 12002 12005     9 
12000 11999 12002 12003     9 
12000 11999 12002 12004     9 
12000 11999 12002 12005     9 
12001 11999 12002 12003     9 
12001 11999 12002 12004     9 
12001 11999 12002 12005     9 
11999 12002 12005 12006     9 
11999 12002 12005 12007     9 
11999 12002 12005 12008     9 
12003 12002 12005 12006     9 
12003 12002 12005 12007     9 
12003 12002 12005 12008     9 
12004 12002 12005 12006     9 
12004 12002 12005 12007     9 
12004 12002 12005 12008     9 
12002 12005 12008 12009     9 
12002 12005 12008 12010     9 
12002 12005 12008 12011     9 
12006 12005 12008 12009     9 
12006 12005 12008 12010     9 
12006 12005 12008 12011     9 
12007 12005 12008 12009     9 
12007 12005 12008 12010     9 
12007 12005 12008 12011     9 
12005 12008 12011 12012     9 
12005 12008 12011 12013     9 
12005 12008 12011 12014     9 
12009 12008 12011 12012     9 
12009 12008 12011 12013     9 
12009 12008 12011 12014     9 
12010 12008 12011 12012     9 
12010 12008 12011 12013     9 
12010 12008 12011 12014     9 
12008 12011 12014 12015     9 
12008 12011 12014 12016     9 
12008 12011 12014 12017     9 
12012 12011 12014 12015     9 
12012 12011 12014 12016     9 
12012 12011 12014 12017     9 
12013 12011 12014 12015     9 
12013 12011 12014 12016     9 
12013 12011 12014 12017     9 
11968 12018 12021 12022     9 
11968 12018 12021 12023     9 
11968 12018 12021 12024     9 
12019 12018 12021 12022     9 
12019 12018 12021 12023     9 
12019 12018 12021 12024     9 
12020 12018 12021 12022     9 
12020 12018 12021 12023     9 
12020 12018 12021 12024     9 
12018 12021 12024 12025     9 
12018 12021 12024 12026     9 
12018 12021 12024 12027     9 
12022 12021 12024 12025     9 
12022 12021 12024 12026     9 
12022 12021 12024 12027     9 
12023 12021 12024 12025     9 
12023 12021 12024 12026     9 
12023 12021 12024 12027     9 
12021 12024 12027 12028     9 
12021 12024 12027 12029     9 
12021 12024 12027 12030     9 
12025 12024 12027 12028     9 
12025 12024 12027 12029     9 
12025 12024 12027 12030     9 
12026 12024 12027 12028     9 
12026 12024 12027 12029     9 
12026 12024 12027 12030     9 
12024 12027 12030 12031     9 
12024 12027 12030 12032     9 
12024 12027 12030 12033     9 
12028 12027 12030 12031     9 
12028 12027 12030 12032     9 
12028 12027 12030 12033     9 
12029 12027 12030 12031     9 
12029 12027 12030 12032     9 
12029 12027 12030 12033     9 
12027 12030 12033 12034     9 
12027 12030 12033 12035     9 
12027 12030 12033 12036     9 
12031 12030 12033 12034     9 
12031 12030 12033 12035     9 
12031 12030 12033 12036     9 
12032 12030 12033 12034     9 
12032 12030 12033 12035     9 
12032 12030 12033 12036     9 
12030 12033 12036 12037     9 
12030 12033 12036 12038     9 
12030 12033 12036 12039     9 
12034 12033 12036 12037     9 
12034 12033 12036 12038     9 
12034 12033 12036 12039     9 
12035 12033 12036 12037     9 
12035 12033 12036 12038     9 
12035 12033 12036 12039     9 
12033 12036 12039 12040     9 
12033 12036 12039 12041     9 
12033 12036 12039 12042     9 
12037 12036 12039 12040     9 
12037 12036 12039 12041     9 
12037 12036 12039 12042     9 
12038 12036 12039 12040     9 
12038 12036 12039 12041     9 
12038 12036 12039 12042     9 
12036 12039 12042 12043     9 
12036 12039 12042 12044     9 
12036 12039 12042 12045     9 
12040 12039 12042 12043     9 
12040 12039 12042 12044     9 
12040 12039 12042 12045     9 
12041 12039 12042 12043     9 
12041 12039 12042 12044     9 
12041 12039 12042 12045     9 
12039 12042 12045 12046     9 
12039 12042 12045 12047     9 
12039 12042 12045 12048     9 
12043 12042 12045 12046     9 
12043 12042 12045 12047     9 
12043 12042 12045 12048     9 
12044 12042 12045 12046     9 
12044 12042 12045 12047     9 
12044 12042 12045 12048     9 
12042 12045 12048 12049     9 
12042 12045 12048 12050     9 
12042 12045 12048 12051     9 
12046 12045 12048 12049     9 
12046 12045 12048 12050     9 
12046 12045 12048 12051     9 
12047 12045 12048 12049     9 
12047 12045 12048 12050     9 
12047 12045 12048 12051     9 
12045 12048 12051 12052     9 
12045 12048 12051 12053     9 
12045 12048 12051 12054     9 
12049 12048 12051 12052     9 
12049 12048 12051 12053     9 
12049 12048 12051 12054     9 
12050 12048 12051 12052     9 
12050 12048 12051 12053     9 
12050 12048 12051 12054     9 
12048 12051 12054 12055     9 
12048 12051 12054 12056     9 
12048 12051 12054 12057     9 
12052 12051 12054 12055     9 
12052 12051 12054 12056     9 
12052 12051 12054 12057     9 
12053 12051 12054 12055     9 
12053 12051 12054 12056     9 
12053 12051 12054 12057     9 
12051 12054 12057 12058     9 
12051 12054 12057 12059     9 
12051 12054 12057 12060     9 
12055 12054 12057 12058     9 
12055 12054 12057 12059     9 
12055 12054 12057 12060     9 
12056 12054 12057 12058     9 
12056 12054 12057 12059     9 
12056 12054 12057 12060     9 
12065 12061 12062 12063     9 
12065 12061 12062 12064     9 
12065 12061 12062 12077     9 
12069 12061 12062 12063     9 
12069 12061 12062 12064     9 
12069 12061 12062 12077     9 
12073 12061 12062 12063     9 
12073 12061 12062 12064     9 
12073 12061 12062 12077     9 
12062 12061 12065 12066     9 
12062 12061 12065 12067     9 
12062 12061 12065 12068     9 
12069 12061 12065 12066     9 
12069 12061 12065 12067     9 
12069 12061 12065 12068     9 
12073 12061 12065 12066     9 
12073 12061 12065 12067     9 
12073 12061 12065 12068     9 
12062 12061 12069 12070     9 
12062 12061 12069 12071     9 
12062 12061 12069 12072     9 
12065 12061 12069 12070     9 
12065 12061 12069 12071     9 
12065 12061 12069 12072     9 
12073 12061 12069 12070     9 
12073 12061 12069 12071     9 
12073 12061 12069 12072     9 
12062 12061 12073 12074     9 
12062 12061 12073 12075     9 
12062 12061 12073 12076     9 
12065 12061 12073 12074     9 
12065 12061 12073 12075     9 
12065 12061 12073 12076     9 
12069 12061 12073 12074     9 
12069 12061 12073 12075     9 
12069 12061 12073 12076     9 
12061 12062 12077 12078     9 
12061 12062 12077 12079     9 
12061 12062 12077 12083     9 
12063 12062 12077 12078     9 
12063 12062 12077 12079     9 
12063 12062 12077 12083     9 
12064 12062 12077 12078     9 
12064 12062 12077 12079     9 
12064 12062 12077 12083     9 
12062 12077 12083 12080     9 
12078 12077 12083 12080     9 
12079 12077 12083 12080     9 
12081 12080 12083 12077     9 
12082 12080 12083 12077     9 
12084 12080 12083 12077     9 
12081 12080 12084 12085     9 
12082 12080 12084 12085     9 
12083 12080 12084 12085     9 
12080 12084 12085 12086     9 
12080 12084 12085 12087     9 
12080 12084 12085 12088     9 
12084 12085 12088 12089     9 
12084 12085 12088 12090     9 
12084 12085 12088 12096     9 
12086 12085 12088 12089     9 
12086 12085 12088 12090     9 
12086 12085 12088 12096     9 
12087 12085 12088 12089     9 
12087 12085 12088 12090     9 
12087 12085 12088 12096     9 
12085 12088 12090 12091     9 
12089 12088 12090 12091     9 
12096 12088 12090 12091     9 
12085 12088 12096 12097     9 
12085 12088 12096 12098     9 
12085 12088 12096 12099     9 
12089 12088 12096 12097     9 
12089 12088 12096 12098     9 
12089 12088 12096 12099     9 
12090 12088 12096 12097     9 
12090 12088 12096 12098     9 
12090 12088 12096 12099     9 
12088 12090 12091 12092     9 
12088 12090 12091 12093     9 
12090 12091 12093 12094     9 
12090 12091 12093 12095     9 
12090 12091 12093 12105     9 
12092 12091 12093 12094     9 
12092 12091 12093 12095     9 
12092 12091 12093 12105     9 
12091 12093 12105 12106     9 
12091 12093 12105 12107     9 
12091 12093 12105 12108     9 
12094 12093 12105 12106     9 
12094 12093 12105 12107     9 
12094 12093 12105 12108     9 
12095 12093 12105 12106     9 
12095 12093 12105 12107     9 
12095 12093 12105 12108     9 
12088 12096 12099 12100     9 
12097 12096 12099 12100     9 
12098 12096 12099 12100     9 
12096 12099 12100 12101     9 
12096 12099 12100 12102     9 
12099 12100 12102 12103     9 
12099 12100 12102 12104     9 
12099 12100 12102 12152     9 
12101 12100 12102 12103     9 
12101 12100 12102 12104     9 
12101 12100 12102 12152     9 
12100 12102 12152 12153     9 
12100 12102 12152 12154     9 
12100 12102 12152 12155     9 
12103 12102 12152 12153     9 
12103 12102 12152 12154     9 
12103 12102 12152 12155     9 
12104 12102 12152 12153     9 
12104 12102 12152 12154     9 
12104 12102 12152 12155     9 
12093 12105 12108 12109     9 
12093 12105 12108 12110     9 
12093 12105 12108 12111     9 
12106 12105 12108 12109     9 
12106 12105 12108 12110     9 
12106 12105 12108 12111     9 
12107 12105 12108 12109     9 
12107 12105 12108 12110     9 
12107 12105 12108 12111     9 
12105 12108 12111 12112     9 
12105 12108 12111 12113     9 
12105 12108 12111 12114     9 
12109 12108 12111 12112     9 
12109 12108 12111 12113     9 
12109 12108 12111 12114     9 
12110 12108 12111 12112     9 
12110 12108 12111 12113     9 
12110 12108 12111 12114     9 
12108 12111 12114 12115     9 
12108 12111 12114 12116     9 
12108 12111 12114 12117     9 
12112 12111 12114 12115     9 
12112 12111 12114 12116     9 
12112 12111 12114 12117     9 
12113 12111 12114 12115     9 
12113 12111 12114 12116     9 
12113 12111 12114 12117     9 
12111 12114 12117 12118     9 
12111 12114 12117 12119     9 
12111 12114 12117 12120     9 
12115 12114 12117 12118     9 
12115 12114 12117 12119     9 
12115 12114 12117 12120     9 
12116 12114 12117 12118     9 
12116 12114 12117 12119     9 
12116 12114 12117 12120     9 
12114 12117 12120 12121     9 
12114 12117 12120 12122     9 
12114 12117 12120 12123     9 
12118 12117 12120 12121     9 
12118 12117 12120 12122     9 
12118 12117 12120 12123     9 
12119 12117 12120 12121     9 
12119 12117 12120 12122     9 
12119 12117 12120 12123     9 
12117 12120 12123 12124     9 
12117 12120 12123 12125     9 
12121 12120 12123 12124     9 
12121 12120 12123 12125     9 
12122 12120 12123 12124     9 
12122 12120 12123 12125     9 
12120 12123 12125 12126     9 
12120 12123 12125 12127     9 
12124 12123 12125 12126     9 
12124 12123 12125 12127     9 
12123 12125 12127 12128     9 
12123 12125 12127 12129     9 
12123 12125 12127 12130     9 
12126 12125 12127 12128     9 
12126 12125 12127 12129     9 
12126 12125 12127 12130     9 
12125 12127 12130 12131     9 
12125 12127 12130 12132     9 
12125 12127 12130 12133     9 
12128 12127 12130 12131     9 
12128 12127 12130 12132     9 
12128 12127 12130 12133     9 
12129 12127 12130 12131     9 
12129 12127 12130 12132     9 
12129 12127 12130 12133     9 
12127 12130 12133 12134     9 
12127 12130 12133 12135     9 
12127 12130 12133 12136     9 
12131 12130 12133 12134     9 
12131 12130 12133 12135     9 
12131 12130 12133 12136     9 
12132 12130 12133 12134     9 
12132 12130 12133 12135     9 
12132 12130 12133 12136     9 
12130 12133 12136 12137     9 
12130 12133 12136 12138     9 
12130 12133 12136 12139     9 
12134 12133 12136 12137     9 
12134 12133 12136 12138     9 
12134 12133 12136 12139     9 
12135 12133 12136 12137     9 
12135 12133 12136 12138     9 
12135 12133 12136 12139     9 
12133 12136 12139 12140     9 
12133 12136 12139 12141     9 
12133 12136 12139 12142     9 
12137 12136 12139 12140     9 
12137 12136 12139 12141     9 
12137 12136 12139 12142     9 
12138 12136 12139 12140     9 
12138 12136 12139 12141     9 
12138 12136 12139 12142     9 
12136 12139 12142 12143     9 
12136 12139 12142 12144     9 
12136 12139 12142 12145     9 
12140 12139 12142 12143     9 
12140 12139 12142 12144     9 
12140 12139 12142 12145     9 
12141 12139 12142 12143     9 
12141 12139 12142 12144     9 
12141 12139 12142 12145     9 
12139 12142 12145 12146     9 
12139 12142 12145 12147     9 
12139 12142 12145 12148     9 
12143 12142 12145 12146     9 
12143 12142 12145 12147     9 
12143 12142 12145 12148     9 
12144 12142 12145 12146     9 
12144 12142 12145 12147     9 
12144 12142 12145 12148     9 
12142 12145 12148 12149     9 
12142 12145 12148 12150     9 
12142 12145 12148 12151     9 
12146 12145 12148 12149     9 
12146 12145 12148 12150     9 
12146 12145 12148 12151     9 
12147 12145 12148 12149     9 
12147 12145 12148 12150     9 
12147 12145 12148 12151     9 
12102 12152 12155 12156     9 
12102 12152 12155 12157     9 
12102 12152 12155 12158     9 
12153 12152 12155 12156     9 
12153 12152 12155 12157     9 
12153 12152 12155 12158     9 
12154 12152 12155 12156     9 
12154 12152 12155 12157     9 
12154 12152 12155 12158     9 
12152 12155 12158 12159     9 
12152 12155 12158 12160     9 
12152 12155 12158 12161     9 
12156 12155 12158 12159     9 
12156 12155 12158 12160     9 
12156 12155 12158 12161     9 
12157 12155 12158 12159     9 
12157 12155 12158 12160     9 
12157 12155 12158 12161     9 
12155 12158 12161 12162     9 
12155 12158 12161 12163     9 
12155 12158 12161 12164     9 
12159 12158 12161 12162     9 
12159 12158 12161 12163     9 
12159 12158 12161 12164     9 
12160 12158 12161 12162     9 
12160 12158 12161 12163     9 
12160 12158 12161 12164     9 
12158 12161 12164 12165     9 
12158 12161 12164 12166     9 
12158 12161 12164 12167     9 
12162 12161 12164 12165     9 
12162 12161 12164 12166     9 
12162 12161 12164 12167     9 
12163 12161 12164 12165     9 
12163 12161 12164 12166     9 
12163 12161 12164 12167     9 
12161 12164 12167 12168     9 
12161 12164 12167 12169     9 
12161 12164 12167 12170     9 
12165 12164 12167 12168     9 
12165 12164 12167 12169     9 
12165 12164 12167 12170     9 
12166 12164 12167 12168     9 
12166 12164 12167 12169     9 
12166 12164 12167 12170     9 
12164 12167 12170 12171     9 
12164 12167 12170 12172     9 
12164 12167 12170 12173     9 
12168 12167 12170 12171     9 
12168 12167 12170 12172     9 
12168 12167 12170 12173     9 
12169 12167 12170 12171     9 
12169 12167 12170 12172     9 
12169 12167 12170 12173     9 
12167 12170 12173 12174     9 
12167 12170 12173 12175     9 
12167 12170 12173 12176     9 
12171 12170 12173 12174     9 
12171 12170 12173 12175     9 
12171 12170 12173 12176     9 
12172 12170 12173 12174     9 
12172 12170 12173 12175     9 
12172 12170 12173 12176     9 
12170 12173 12176 12177     9 
12170 12173 12176 12178     9 
12170 12173 12176 12179     9 
12174 12173 12176 12177     9 
12174 12173 12176 12178     9 
12174 12173 12176 12179     9 
12175 12173 12176 12177     9 
12175 12173 12176 12178     9 
12175 12173 12176 12179     9 
12173 12176 12179 12180     9 
12173 12176 12179 12181     9 
12173 12176 12179 12182     9 
12177 12176 12179 12180     9 
12177 12176 12179 12181     9 
12177 12176 12179 12182     9 
12178 12176 12179 12180     9 
12178 12176 12179 12181     9 
12178 12176 12179 12182     9 
12176 12179 12182 12183     9 
12176 12179 12182 12184     9 
12176 12179 12182 12185     9 
12180 12179 12182 12183     9 
12180 12179 12182 12184     9 
12180 12179 12182 12185     9 
12181 12179 12182 12183     9 
12181 12179 12182 12184     9 
12181 12179 12182 12185     9 
12179 12182 12185 12186     9 
12179 12182 12185 12187     9 
12179 12182 12185 12188     9 
12183 12182 12185 12186     9 
12183 12182 12185 12187     9 
12183 12182 12185 12188     9 
12184 12182 12185 12186     9 
12184 12182 12185 12187     9 
12184 12182 12185 12188     9 
12182 12185 12188 12189     9 
12182 12185 12188 12190     9 
12182 12185 12188 12191     9 
12186 12185 12188 12189     9 
12186 12185 12188 12190     9 
12186 12185 12188 12191     9 
12187 12185 12188 12189     9 
12187 12185 12188 12190     9 
12187 12185 12188 12191     9 
12185 12188 12191 12192     9 
12185 12188 12191 12193     9 
12185 12188 12191 12194     9 
12189 12188 12191 12192     9 
12189 12188 12191 12193     9 
12189 12188 12191 12194     9 
12190 12188 12191 12192     9 
12190 12188 12191 12193     9 
12190 12188 12191 12194     9 
12199 12195 12196 12197     9 
12199 12195 12196 12198     9 
12199 12195 12196 12211     9 
12203 12195 12196 12197     9 
12203 12195 12196 12198     9 
12203 12195 12196 12211     9 
12207 12195 12196 12197     9 
12207 12195 12196 12198     9 
12207 12195 12196 12211     9 
12196 12195 12199 12200     9 
12196 12195 12199 12201     9 
12196 12195 12199 12202     9 
12203 12195 12199 12200     9 
12203 12195 12199 12201     9 
12203 12195 12199 12202     9 
12207 12195 12199 12200     9 
12207 12195 12199 12201     9 
12207 12195 12199 12202     9 
12196 12195 12203 12204     9 
12196 12195 12203 12205     9 
12196 12195 12203 12206     9 
12199 12195 12203 12204     9 
12199 12195 12203 12205     9 
12199 12195 12203 12206     9 
12207 12195 12203 12204     9 
12207 12195 12203 12205     9 
12207 12195 12203 12206     9 
12196 12195 12207 12208     9 
12196 12195 12207 12209     9 
12196 12195 12207 12210     9 
12199 12195 12207 12208     9 
12199 12195 12207 12209     9 
12199 12195 12207 12210     9 
12203 12195 12207 12208     9 
12203 12195 12207 12209     9 
12203 12195 12207 12210     9 
12195 12196 12211 12212     9 
12195 12196 12211 12213     9 
12195 12196 12211 12217     9 
12197 12196 12211 12212     9 
12197 12196 12211 12213     9 
12197 12196 12211 12217     9 
12198 12196 12211 12212     9 
12198 12196 12211 12213     9 
12198 12196 12211 12217     9 
12196 12211 12217 12214     9 
12212 12211 12217 12214     9 
12213 12211 12217 12214     9 
12215 12214 12217 12211     9 
12216 12214 12217 12211     9 
12218 12214 12217 12211     9 
12215 12214 12218 12219     9 
12216 12214 12218 12219     9 
12217 12214 12218 12219     9 
12214 12218 12219 12220     9 
12214 12218 12219 12221     9 
12214 12218 12219 12222     9 
12218 12219 12222 12223     9 
12218 12219 12222 12224     9 
12218 12219 12222 12230     9 
12220 12219 12222 12223     9 
12220 12219 12222 12224     9 
12220 12219 12222 12230     9 
12221 12219 12222 12223     9 
12221 12219 12222 12224     9 
12221 12219 12222 12230     9 
12219 12222 12224 12225     9 
12223 12222 12224 12225     9 
12230 12222 12224 12225     9 
12219 12222 12230 12231     9 
12219 12222 12230 12232     9 
12219 12222 12230 12233     9 
12223 12222 12230 12231     9 
12223 12222 12230 12232     9 
12223 12222 12230 12233     9 
12224 12222 12230 12231     9 
12224 12222 12230 12232     9 
12224 12222 12230 12233     9 
12222 12224 12225 12226     9 
12222 12224 12225 12227     9 
12224 12225 12227 12228     9 
12224 12225 12227 12229     9 
12224 12225 12227 12239     9 
12226 12225 12227 12228     9 
12226 12225 12227 12229     9 
12226 12225 12227 12239     9 
12225 12227 12239 12240     9 
12225 12227 12239 12241     9 
12225 12227 12239 12242     9 
12228 12227 12239 12240     9 
12228 12227 12239 12241     9 
12228 12227 12239 12242     9 
12229 12227 12239 12240     9 
12229 12227 12239 12241     9 
12229 12227 12239 12242     9 
12222 12230 12233 12234     9 
12231 12230 12233 12234     9 
12232 12230 12233 12234     9 
12230 12233 12234 12235     9 
12230 12233 12234 12236     9 
12233 12234 12236 12237     9 
12233 12234 12236 12238     9 
12233 12234 12236 12286     9 
12235 12234 12236 12237     9 
12235 12234 12236 12238     9 
12235 12234 12236 12286     9 
12234 12236 12286 12287     9 
12234 12236 12286 12288     9 
12234 12236 12286 12289     9 
12237 12236 12286 12287     9 
12237 12236 12286 12288     9 
12237 12236 12286 12289     9 
12238 12236 12286 12287     9 
12238 12236 12286 12288     9 
12238 12236 12286 12289     9 
12227 12239 12242 12243     9 
12227 12239 12242 12244     9 
12227 12239 12242 12245     9 
12240 12239 12242 12243     9 
12240 12239 12242 12244     9 
12240 12239 12242 12245     9 
12241 12239 12242 12243     9 
12241 12239 12242 12244     9 
12241 12239 12242 12245     9 
12239 12242 12245 12246     9 
12239 12242 12245 12247     9 
12239 12242 12245 12248     9 
12243 12242 12245 12246     9 
12243 12242 12245 12247     9 
12243 12242 12245 12248     9 
12244 12242 12245 12246     9 
12244 12242 12245 12247     9 
12244 12242 12245 12248     9 
12242 12245 12248 12249     9 
12242 12245 12248 12250     9 
12242 12245 12248 12251     9 
12246 12245 12248 12249     9 
12246 12245 12248 12250     9 
12246 12245 12248 12251     9 
12247 12245 12248 12249     9 
12247 12245 12248 12250     9 
12247 12245 12248 12251     9 
12245 12248 12251 12252     9 
12245 12248 12251 12253     9 
12245 12248 12251 12254     9 
12249 12248 12251 12252     9 
12249 12248 12251 12253     9 
12249 12248 12251 12254     9 
12250 12248 12251 12252     9 
12250 12248 12251 12253     9 
12250 12248 12251 12254     9 
12248 12251 12254 12255     9 
12248 12251 12254 12256     9 
12248 12251 12254 12257     9 
12252 12251 12254 12255     9 
12252 12251 12254 12256     9 
12252 12251 12254 12257     9 
12253 12251 12254 12255     9 
12253 12251 12254 12256     9 
12253 12251 12254 12257     9 
12251 12254 12257 12258     9 
12251 12254 12257 12259     9 
12255 12254 12257 12258     9 
12255 12254 12257 12259     9 
12256 12254 12257 12258     9 
12256 12254 12257 12259     9 
12254 12257 12259 12260     9 
12254 12257 12259 12261     9 
12258 12257 12259 12260     9 
12258 12257 12259 12261     9 
12257 12259 12261 12262     9 
12257 12259 12261 12263     9 
12257 12259 12261 12264     9 
12260 12259 12261 12262     9 
12260 12259 12261 12263     9 
12260 12259 12261 12264     9 
12259 12261 12264 12265     9 
12259 12261 12264 12266     9 
12259 12261 12264 12267     9 
12262 12261 12264 12265     9 
12262 12261 12264 12266     9 
12262 12261 12264 12267     9 
12263 12261 12264 12265     9 
12263 12261 12264 12266     9 
12263 12261 12264 12267     9 
12261 12264 12267 12268     9 
12261 12264 12267 12269     9 
12261 12264 12267 12270     9 
12265 12264 12267 12268     9 
12265 12264 12267 12269     9 
12265 12264 12267 12270     9 
12266 12264 12267 12268     9 
12266 12264 12267 12269     9 
12266 12264 12267 12270     9 
12264 12267 12270 12271     9 
12264 12267 12270 12272     9 
12264 12267 12270 12273     9 
12268 12267 12270 12271     9 
12268 12267 12270 12272     9 
12268 12267 12270 12273     9 
12269 12267 12270 12271     9 
12269 12267 12270 12272     9 
12269 12267 12270 12273     9 
12267 12270 12273 12274     9 
12267 12270 12273 12275     9 
12267 12270 12273 12276     9 
12271 12270 12273 12274     9 
12271 12270 12273 12275     9 
12271 12270 12273 12276     9 
12272 12270 12273 12274     9 
12272 12270 12273 12275     9 
12272 12270 12273 12276     9 
12270 12273 12276 12277     9 
12270 12273 12276 12278     9 
12270 12273 12276 12279     9 
12274 12273 12276 12277     9 
12274 12273 12276 12278     9 
12274 12273 12276 12279     9 
12275 12273 12276 12277     9 
12275 12273 12276 12278     9 
12275 12273 12276 12279     9 
12273 12276 12279 12280     9 
12273 12276 12279 12281     9 
12273 12276 12279 12282     9 
12277 12276 12279 12280     9 
12277 12276 12279 12281     9 
12277 12276 12279 12282     9 
12278 12276 12279 12280     9 
12278 12276 12279 12281     9 
12278 12276 12279 12282     9 
12276 12279 12282 12283     9 
12276 12279 12282 12284     9 
12276 12279 12282 12285     9 
12280 12279 12282 12283     9 
12280 12279 12282 12284     9 
12280 12279 12282 12285     9 
12281 12279 12282 12283     9 
12281 12279 12282 12284     9 
12281 12279 12282 12285     9 
12236 12286 12289 12290     9 
12236 12286 12289 12291     9 
12236 12286 12289 12292     9 
12287 12286 12289 12290     9 
12287 12286 12289 12291     9 
12287 12286 12289 12292     9 
12288 12286 12289 12290     9 
12288 12286 12289 12291     9 
12288 12286 12289 12292     9 
12286 12289 12292 12293     9 
12286 12289 12292 12294     9 
12286 12289 12292 12295     9 
12290 12289 12292 12293     9 
12290 12289 12292 12294     9 
12290 12289 12292 12295     9 
12291 12289 12292 12293     9 
12291 12289 12292 12294     9 
12291 12289 12292 12295     9 
12289 12292 12295 12296     9 
12289 12292 12295 12297     9 
12289 12292 12295 12298     9 
12293 12292 12295 12296     9 
12293 12292 12295 12297     9 
12293 12292 12295 12298     9 
12294 12292 12295 12296     9 
12294 12292 12295 12297     9 
12294 12292 12295 12298     9 
12292 12295 12298 12299     9 
12292 12295 12298 12300     9 
12292 12295 12298 12301     9 
12296 12295 12298 12299     9 
12296 12295 12298 12300     9 
12296 12295 12298 12301     9 
12297 12295 12298 12299     9 
12297 12295 12298 12300     9 
12297 12295 12298 12301     9 
12295 12298 12301 12302     9 
12295 12298 12301 12303     9 
12295 12298 12301 12304     9 
12299 12298 12301 12302     9 
12299 12298 12301 12303     9 
12299 12298 12301 12304     9 
12300 12298 12301 12302     9 
12300 12298 12301 12303     9 
12300 12298 12301 12304     9 
12298 12301 12304 12305     9 
12298 12301 12304 12306     9 
12298 12301 12304 12307     9 
12302 12301 12304 12305     9 
12302 12301 12304 12306     9 
12302 12301 12304 12307     9 
12303 12301 12304 12305     9 
12303 12301 12304 12306     9 
12303 12301 12304 12307     9 
12301 12304 12307 12308     9 
12301 12304 12307 12309     9 
12301 12304 12307 12310     9 
12305 12304 12307 12308     9 
12305 12304 12307 12309     9 
12305 12304 12307 12310     9 
12306 12304 12307 12308     9 
12306 12304 12307 12309     9 
12306 12304 12307 12310     9 
12304 12307 12310 12311     9 
12304 12307 12310 12312     9 
12304 12307 12310 12313     9 
12308 12307 12310 12311     9 
12308 12307 12310 12312     9 
12308 12307 12310 12313     9 
12309 12307 12310 12311     9 
12309 12307 12310 12312     9 
12309 12307 12310 12313     9 
12307 12310 12313 12314     9 
12307 12310 12313 12315     9 
12307 12310 12313 12316     9 
12311 12310 12313 12314     9 
12311 12310 12313 12315     9 
12311 12310 12313 12316     9 
12312 12310 12313 12314     9 
12312 12310 12313 12315     9 
12312 12310 12313 12316     9 
12310 12313 12316 12317     9 
12310 12313 12316 12318     9 
12310 12313 12316 12319     9 
12314 12313 12316 12317     9 
12314 12313 12316 12318     9 
12314 12313 12316 12319     9 
12315 12313 12316 12317     9 
12315 12313 12316 12318     9 
12315 12313 12316 12319     9 
12313 12316 12319 12320     9 
12313 12316 12319 12321     9 
12313 12316 12319 12322     9 
12317 12316 12319 12320     9 
12317 12316 12319 12321     9 
12317 12316 12319 12322     9 
12318 12316 12319 12320     9 
12318 12316 12319 12321     9 
12318 12316 12319 12322     9 
12316 12319 12322 12323     9 
12316 12319 12322 12324     9 
12316 12319 12322 12325     9 
12320 12319 12322 12323     9 
12320 12319 12322 12324     9 
12320 12319 12322 12325     9 
12321 12319 12322 12323     9 
12321 12319 12322 12324     9 
12321 12319 12322 12325     9 
12319 12322 12325 12326     9 
12319 12322 12325 12327     9 
12319 12322 12325 12328     9 
12323 12322 12325 12326     9 
12323 12322 12325 12327     9 
12323 12322 12325 12328     9 
12324 12322 12325 12326     9 
12324 12322 12325 12327     9 
12324 12322 12325 12328     9 
12333 12329 12330 12331     9 
12333 12329 12330 12332     9 
12333 12329 12330 12345     9 
12337 12329 12330 12331     9 
12337 12329 12330 12332     9 
12337 12329 12330 12345     9 
12341 12329 12330 12331     9 
12341 12329 12330 12332     9 
12341 12329 12330 12345     9 
12330 12329 12333 12334     9 
12330 12329 12333 12335     9 
12330 12329 12333 12336     9 
12337 12329 12333 12334     9 
12337 12329 12333 12335     9 
12337 12329 12333 12336     9 
12341 12329 12333 12334     9 
12341 12329 12333 12335     9 
12341 12329 12333 12336     9 
12330 12329 12337 12338     9 
12330 12329 12337 12339     9 
12330 12329 12337 12340     9 
12333 12329 12337 12338     9 
12333 12329 12337 12339     9 
12333 12329 12337 12340     9 
12341 12329 12337 12338     9 
12341 12329 12337 12339     9 
12341 12329 12337 12340     9 
12330 12329 12341 12342     9 
12330 12329 12341 12343     9 
12330 12329 12341 12344     9 
12333 12329 12341 12342     9 
12333 12329 12341 12343     9 
12333 12329 12341 12344     9 
12337 12329 12341 12342     9 
12337 12329 12341 12343     9 
12337 12329 12341 12344     9 
12329 12330 12345 12346     9 
12329 12330 12345 12347     9 
12329 12330 12345 12351     9 
12331 12330 12345 12346     9 
12331 12330 12345 12347     9 
12331 12330 12345 12351     9 
12332 12330 12345 12346     9 
12332 12330 12345 12347     9 
12332 12330 12345 12351     9 
12330 12345 12351 12348     9 
12346 12345 12351 12348     9 
12347 12345 12351 12348     9 
12349 12348 12351 12345     9 
12350 12348 12351 12345     9 
12352 12348 12351 12345     9 
12349 12348 12352 12353     9 
12350 12348 12352 12353     9 
12351 12348 12352 12353     9 
12348 12352 12353 12354     9 
12348 12352 12353 12355     9 
12348 12352 12353 12356     9 
12352 12353 12356 12357     9 
12352 12353 12356 12358     9 
12352 12353 12356 12364     9 
12354 12353 12356 12357     9 
12354 12353 12356 12358     9 
12354 12353 12356 12364     9 
12355 12353 12356 12357     9 
12355 12353 12356 12358     9 
12355 12353 12356 12364     9 
12353 12356 12358 12359     9 
12357 12356 12358 12359     9 
12364 12356 12358 12359     9 
12353 12356 12364 12365     9 
12353 12356 12364 12366     9 
12353 12356 12364 12367     9 
12357 12356 12364 12365     9 
12357 12356 12364 12366     9 
12357 12356 12364 12367     9 
12358 12356 12364 12365     9 
12358 12356 12364 12366     9 
12358 12356 12364 12367     9 
12356 12358 12359 12360     9 
12356 12358 12359 12361     9 
12358 12359 12361 12362     9 
12358 12359 12361 12363     9 
12358 12359 12361 12373     9 
12360 12359 12361 12362     9 
12360 12359 12361 12363     9 
12360 12359 12361 12373     9 
12359 12361 12373 12374     9 
12359 12361 12373 12375     9 
12359 12361 12373 12376     9 
12362 12361 12373 12374     9 
12362 12361 12373 12375     9 
12362 12361 12373 12376     9 
12363 12361 12373 12374     9 
12363 12361 12373 12375     9 
12363 12361 12373 12376     9 
12356 12364 12367 12368     9 
12365 12364 12367 12368     9 
12366 12364 12367 12368     9 
12364 12367 12368 12369     9 
12364 12367 12368 12370     9 
12367 12368 12370 12371     9 
12367 12368 12370 12372     9 
12367 12368 12370 12420     9 
12369 12368 12370 12371     9 
12369 12368 12370 12372     9 
12369 12368 12370 12420     9 
12368 12370 12420 12421     9 
12368 12370 12420 12422     9 
12368 12370 12420 12423     9 
12371 12370 12420 12421     9 
12371 12370 12420 12422     9 
12371 12370 12420 12423     9 
12372 12370 12420 12421     9 
12372 12370 12420 12422     9 
12372 12370 12420 12423     9 
12361 12373 12376 12377     9 
12361 12373 12376 12378     9 
12361 12373 12376 12379     9 
12374 12373 12376 12377     9 
12374 12373 12376 12378     9 
12374 12373 12376 12379     9 
12375 12373 12376 12377     9 
12375 12373 12376 12378     9 
12375 12373 12376 12379     9 
12373 12376 12379 12380     9 
12373 12376 12379 12381     9 
12373 12376 12379 12382     9 
12377 12376 12379 12380     9 
12377 12376 12379 12381     9 
12377 12376 12379 12382     9 
12378 12376 12379 12380     9 
12378 12376 12379 12381     9 
12378 12376 12379 12382     9 
12376 12379 12382 12383     9 
12376 12379 12382 12384     9 
12376 12379 12382 12385     9 
12380 12379 12382 12383     9 
12380 12379 12382 12384     9 
12380 12379 12382 12385     9 
12381 12379 12382 12383     9 
12381 12379 12382 12384     9 
12381 12379 12382 12385     9 
12379 12382 12385 12386     9 
12379 12382 12385 12387     9 
12379 12382 12385 12388     9 
12383 12382 12385 12386     9 
12383 12382 12385 12387     9 
12383 12382 12385 12388     9 
12384 12382 12385 12386     9 
12384 12382 12385 12387     9 
12384 12382 12385 12388     9 
12382 12385 12388 12389     9 
12382 12385 12388 12390     9 
12382 12385 12388 12391     9 
12386 12385 12388 12389     9 
12386 12385 12388 12390     9 
12386 12385 12388 12391     9 
12387 12385 12388 12389     9 
12387 12385 12388 12390     9 
12387 12385 12388 12391     9 
12385 12388 12391 12392     9 
12385 12388 12391 12393     9 
12389 12388 12391 12392     9 
12389 12388 12391 12393     9 
12390 12388 12391 12392     9 
12390 12388 12391 12393     9 
12388 12391 12393 12394     9 
12388 12391 12393 12395     9 
12392 12391 12393 12394     9 
12392 12391 12393 12395     9 
12391 12393 12395 12396     9 
12391 12393 12395 12397     9 
12391 12393 12395 12398     9 
12394 12393 12395 12396     9 
12394 12393 12395 12397     9 
12394 12393 12395 12398     9 
12393 12395 12398 12399     9 
12393 12395 12398 12400     9 
12393 12395 12398 12401     9 
12396 12395 12398 12399     9 
12396 12395 12398 12400     9 
12396 12395 12398 12401     9 
12397 12395 12398 12399     9 
12397 12395 12398 12400     9 
12397 12395 12398 12401     9 
12395 12398 12401 12402     9 
12395 12398 12401 12403     9 
12395 12398 12401 12404     9 
12399 12398 12401 12402     9 
12399 12398 12401 12403     9 
12399 12398 12401 12404     9 
12400 12398 12401 12402     9 
12400 12398 12401 12403     9 
12400 12398 12401 12404     9 
12398 12401 12404 12405     9 
12398 12401 12404 12406     9 
12398 12401 12404 12407     9 
12402 12401 12404 12405     9 
12402 12401 12404 12406     9 
12402 12401 12404 12407     9 
12403 12401 12404 12405     9 
12403 12401 12404 12406     9 
12403 12401 12404 12407     9 
12401 12404 12407 12408     9 
12401 12404 12407 12409     9 
12401 12404 12407 12410     9 
12405 12404 12407 12408     9 
12405 12404 12407 12409     9 
12405 12404 12407 12410     9 
12406 12404 12407 12408     9 
12406 12404 12407 12409     9 
12406 12404 12407 12410     9 
12404 12407 12410 12411     9 
12404 12407 12410 12412     9 
12404 12407 12410 12413     9 
12408 12407 12410 12411     9 
12408 12407 12410 12412     9 
12408 12407 12410 12413     9 
12409 12407 12410 12411     9 
12409 12407 12410 12412     9 
12409 12407 12410 12413     9 
12407 12410 12413 12414     9 
12407 12410 12413 12415     9 
12407 12410 12413 12416     9 
12411 12410 12413 12414     9 
12411 12410 12413 12415     9 
12411 12410 12413 12416     9 
12412 12410 12413 12414     9 
12412 12410 12413 12415     9 
12412 12410 12413 12416     9 
12410 12413 12416 12417     9 
12410 12413 12416 12418     9 
12410 12413 12416 12419     9 
12414 12413 12416 12417     9 
12414 12413 12416 12418     9 
12414 12413 12416 12419     9 
12415 12413 12416 12417     9 
12415 12413 12416 12418     9 
12415 12413 12416 12419     9 
12370 12420 12423 12424     9 
12370 12420 12423 12425     9 
12370 12420 12423 12426     9 
12421 12420 12423 12424     9 
12421 12420 12423 12425     9 
12421 12420 12423 12426     9 
12422 12420 12423 12424     9 
12422 12420 12423 12425     9 
12422 12420 12423 12426     9 
12420 12423 12426 12427     9 
12420 12423 12426 12428     9 
12420 12423 12426 12429     9 
12424 12423 12426 12427     9 
12424 12423 12426 12428     9 
12424 12423 12426 12429     9 
12425 12423 12426 12427     9 
12425 12423 12426 12428     9 
12425 12423 12426 12429     9 
12423 12426 12429 12430     9 
12423 12426 12429 12431     9 
12423 12426 12429 12432     9 
12427 12426 12429 12430     9 
12427 12426 12429 12431     9 
12427 12426 12429 12432     9 
12428 12426 12429 12430     9 
12428 12426 12429 12431     9 
12428 12426 12429 12432     9 
12426 12429 12432 12433     9 
12426 12429 12432 12434     9 
12426 12429 12432 12435     9 
12430 12429 12432 12433     9 
12430 12429 12432 12434     9 
12430 12429 12432 12435     9 
12431 12429 12432 12433     9 
12431 12429 12432 12434     9 
12431 12429 12432 12435     9 
12429 12432 12435 12436     9 
12429 12432 12435 12437     9 
12429 12432 12435 12438     9 
12433 12432 12435 12436     9 
12433 12432 12435 12437     9 
12433 12432 12435 12438     9 
12434 12432 12435 12436     9 
12434 12432 12435 12437     9 
12434 12432 12435 12438     9 
12432 12435 12438 12439     9 
12432 12435 12438 12440     9 
12432 12435 12438 12441     9 
12436 12435 12438 12439     9 
12436 12435 12438 12440     9 
12436 12435 12438 12441     9 
12437 12435 12438 12439     9 
12437 12435 12438 12440     9 
12437 12435 12438 12441     9 
12435 12438 12441 12442     9 
12435 12438 12441 12443     9 
12435 12438 12441 12444     9 
12439 12438 12441 12442     9 
12439 12438 12441 12443     9 
12439 12438 12441 12444     9 
12440 12438 12441 12442     9 
12440 12438 12441 12443     9 
12440 12438 12441 12444     9 
12438 12441 12444 12445     9 
12438 12441 12444 12446     9 
12438 12441 12444 12447     9 
12442 12441 12444 12445     9 
12442 12441 12444 12446     9 
12442 12441 12444 12447     9 
12443 12441 12444 12445     9 
12443 12441 12444 12446     9 
12443 12441 12444 12447     9 
12441 12444 12447 12448     9 
12441 12444 12447 12449     9 
12441 12444 12447 12450     9 
12445 12444 12447 12448     9 
12445 12444 12447 12449     9 
12445 12444 12447 12450     9 
12446 12444 12447 12448     9 
12446 12444 12447 12449     9 
12446 12444 12447 12450     9 
12444 12447 12450 12451     9 
12444 12447 12450 12452     9 
12444 12447 12450 12453     9 
12448 12447 12450 12451     9 
12448 12447 12450 12452     9 
12448 12447 12450 12453     9 
12449 12447 12450 12451     9 
12449 12447 12450 12452     9 
12449 12447 12450 12453     9 
12447 12450 12453 12454     9 
12447 12450 12453 12455     9 
12447 12450 12453 12456     9 
12451 12450 12453 12454     9 
12451 12450 12453 12455     9 
12451 12450 12453 12456     9 
12452 12450 12453 12454     9 
12452 12450 12453 12455     9 
12452 12450 12453 12456     9 
12450 12453 12456 12457     9 
12450 12453 12456 12458     9 
12450 12453 12456 12459     9 
12454 12453 12456 12457     9 
12454 12453 12456 12458     9 
12454 12453 12456 12459     9 
12455 12453 12456 12457     9 
12455 12453 12456 12458     9 
12455 12453 12456 12459     9 
12453 12456 12459 12460     9 
12453 12456 12459 12461     9 
12453 12456 12459 12462     9 
12457 12456 12459 12460     9 
12457 12456 12459 12461     9 
12457 12456 12459 12462     9 
12458 12456 12459 12460     9 
12458 12456 12459 12461     9 
12458 12456 12459 12462     9 
12467 12463 12464 12465     9 
12467 12463 12464 12466     9 
12467 12463 12464 12479     9 
12471 12463 12464 12465     9 
12471 12463 12464 12466     9 
12471 12463 12464 12479     9 
12475 12463 12464 12465     9 
12475 12463 12464 12466     9 
12475 12463 12464 12479     9 
12464 12463 12467 12468     9 
12464 12463 12467 12469     9 
12464 12463 12467 12470     9 
12471 12463 12467 12468     9 
12471 12463 12467 12469     9 
12471 12463 12467 12470     9 
12475 12463 12467 12468     9 
12475 12463 12467 12469     9 
12475 12463 12467 12470     9 
12464 12463 12471 12472     9 
12464 12463 12471 12473     9 
12464 12463 12471 12474     9 
12467 12463 12471 12472     9 
12467 12463 12471 12473     9 
12467 12463 12471 12474     9 
12475 12463 12471 12472     9 
12475 12463 12471 12473     9 
12475 12463 12471 12474     9 
12464 12463 12475 12476     9 
12464 12463 12475 12477     9 
12464 12463 12475 12478     9 
12467 12463 12475 12476     9 
12467 12463 12475 12477     9 
12467 12463 12475 12478     9 
12471 12463 12475 12476     9 
12471 12463 12475 12477     9 
12471 12463 12475 12478     9 
12463 12464 12479 12480     9 
12463 12464 12479 12481     9 
12463 12464 12479 12485     9 
12465 12464 12479 12480     9 
12465 12464 12479 12481     9 
12465 12464 12479 12485     9 
12466 12464 12479 12480     9 
12466 12464 12479 12481     9 
12466 12464 12479 12485     9 
12464 12479 12485 12482     9 
12480 12479 12485 12482     9 
12481 12479 12485 12482     9 
12483 12482 12485 12479     9 
12484 12482 12485 12479     9 
12486 12482 12485 12479     9 
12483 12482 12486 12487     9 
12484 12482 12486 12487     9 
12485 12482 12486 12487     9 
12482 12486 12487 12488     9 
12482 12486 12487 12489     9 
12482 12486 12487 12490     9 
12486 12487 12490 12491     9 
12486 12487 12490 12492     9 
12486 12487 12490 12498     9 
12488 12487 12490 12491     9 
12488 12487 12490 12492     9 
12488 12487 12490 12498     9 
12489 12487 12490 12491     9 
12489 12487 12490 12492     9 
12489 12487 12490 12498     9 
12487 12490 12492 12493     9 
12491 12490 12492 12493     9 
12498 12490 12492 12493     9 
12487 12490 12498 12499     9 
12487 12490 12498 12500     9 
12487 12490 12498 12501     9 
12491 12490 12498 12499     9 
12491 12490 12498 12500     9 
12491 12490 12498 12501     9 
12492 12490 12498 12499     9 
12492 12490 12498 12500     9 
12492 12490 12498 12501     9 
12490 12492 12493 12494     9 
12490 12492 12493 12495     9 
12492 12493 12495 12496     9 
12492 12493 12495 12497     9 
12492 12493 12495 12507     9 
12494 12493 12495 12496     9 
12494 12493 12495 12497     9 
12494 12493 12495 12507     9 
12493 12495 12507 12508     9 
12493 12495 12507 12509     9 
12493 12495 12507 12510     9 
12496 12495 12507 12508     9 
12496 12495 12507 12509     9 
12496 12495 12507 12510     9 
12497 12495 12507 12508     9 
12497 12495 12507 12509     9 
12497 12495 12507 12510     9 
12490 12498 12501 12502     9 
12499 12498 12501 12502     9 
12500 12498 12501 12502     9 
12498 12501 12502 12503     9 
12498 12501 12502 12504     9 
12501 12502 12504 12505     9 
12501 12502 12504 12506     9 
12501 12502 12504 12554     9 
12503 12502 12504 12505     9 
12503 12502 12504 12506     9 
12503 12502 12504 12554     9 
12502 12504 12554 12555     9 
12502 12504 12554 12556     9 
12502 12504 12554 12557     9 
12505 12504 12554 12555     9 
12505 12504 12554 12556     9 
12505 12504 12554 12557     9 
12506 12504 12554 12555     9 
12506 12504 12554 12556     9 
12506 12504 12554 12557     9 
12495 12507 12510 12511     9 
12495 12507 12510 12512     9 
12495 12507 12510 12513     9 
12508 12507 12510 12511     9 
12508 12507 12510 12512     9 
12508 12507 12510 12513     9 
12509 12507 12510 12511     9 
12509 12507 12510 12512     9 
12509 12507 12510 12513     9 
12507 12510 12513 12514     9 
12507 12510 12513 12515     9 
12507 12510 12513 12516     9 
12511 12510 12513 12514     9 
12511 12510 12513 12515     9 
12511 12510 12513 12516     9 
12512 12510 12513 12514     9 
12512 12510 12513 12515     9 
12512 12510 12513 12516     9 
12510 12513 12516 12517     9 
12510 12513 12516 12518     9 
12510 12513 12516 12519     9 
12514 12513 12516 12517     9 
12514 12513 12516 12518     9 
12514 12513 12516 12519     9 
12515 12513 12516 12517     9 
12515 12513 12516 12518     9 
12515 12513 12516 12519     9 
12513 12516 12519 12520     9 
12513 12516 12519 12521     9 
12513 12516 12519 12522     9 
12517 12516 12519 12520     9 
12517 12516 12519 12521     9 
12517 12516 12519 12522     9 
12518 12516 12519 12520     9 
12518 12516 12519 12521     9 
12518 12516 12519 12522     9 
12516 12519 12522 12523     9 
12516 12519 12522 12524     9 
12516 12519 12522 12525     9 
12520 12519 12522 12523     9 
12520 12519 12522 12524     9 
12520 12519 12522 12525     9 
12521 12519 12522 12523     9 
12521 12519 12522 12524     9 
12521 12519 12522 12525     9 
12519 12522 12525 12526     9 
12519 12522 12525 12527     9 
12523 12522 12525 12526     9 
12523 12522 12525 12527     9 
12524 12522 12525 12526     9 
12524 12522 12525 12527     9 
12522 12525 12527 12528     9 
12522 12525 12527 12529     9 
12526 12525 12527 12528     9 
12526 12525 12527 12529     9 
12525 12527 12529 12530     9 
12525 12527 12529 12531     9 
12525 12527 12529 12532     9 
12528 12527 12529 12530     9 
12528 12527 12529 12531     9 
12528 12527 12529 12532     9 
12527 12529 12532 12533     9 
12527 12529 12532 12534     9 
12527 12529 12532 12535     9 
12530 12529 12532 12533     9 
12530 12529 12532 12534     9 
12530 12529 12532 12535     9 
12531 12529 12532 12533     9 
12531 12529 12532 12534     9 
12531 12529 12532 12535     9 
12529 12532 12535 12536     9 
12529 12532 12535 12537     9 
12529 12532 12535 12538     9 
12533 12532 12535 12536     9 
12533 12532 12535 12537     9 
12533 12532 12535 12538     9 
12534 12532 12535 12536     9 
12534 12532 12535 12537     9 
12534 12532 12535 12538     9 
12532 12535 12538 12539     9 
12532 12535 12538 12540     9 
12532 12535 12538 12541     9 
12536 12535 12538 12539     9 
12536 12535 12538 12540     9 
12536 12535 12538 12541     9 
12537 12535 12538 12539     9 
12537 12535 12538 12540     9 
12537 12535 12538 12541     9 
12535 12538 12541 12542     9 
12535 12538 12541 12543     9 
12535 12538 12541 12544     9 
12539 12538 12541 12542     9 
12539 12538 12541 12543     9 
12539 12538 12541 12544     9 
12540 12538 12541 12542     9 
12540 12538 12541 12543     9 
12540 12538 12541 12544     9 
12538 12541 12544 12545     9 
12538 12541 12544 12546     9 
12538 12541 12544 12547     9 
12542 12541 12544 12545     9 
12542 12541 12544 12546     9 
12542 12541 12544 12547     9 
12543 12541 12544 12545     9 
12543 12541 12544 12546     9 
12543 12541 12544 12547     9 
12541 12544 12547 12548     9 
12541 12544 12547 12549     9 
12541 12544 12547 12550     9 
12545 12544 12547 12548     9 
12545 12544 12547 12549     9 
12545 12544 12547 12550     9 
12546 12544 12547 12548     9 
12546 12544 12547 12549     9 
12546 12544 12547 12550     9 
12544 12547 12550 12551     9 
12544 12547 12550 12552     9 
12544 12547 12550 12553     9 
12548 12547 12550 12551     9 
12548 12547 12550 12552     9 
12548 12547 12550 12553     9 
12549 12547 12550 12551     9 
12549 12547 12550 12552     9 
12549 12547 12550 12553     9 
12504 12554 12557 12558     9 
12504 12554 12557 12559     9 
12504 12554 12557 12560     9 
12555 12554 12557 12558     9 
12555 12554 12557 12559     9 
12555 12554 12557 12560     9 
12556 12554 12557 12558     9 
12556 12554 12557 12559     9 
12556 12554 12557 12560     9 
12554 12557 12560 12561     9 
12554 12557 12560 12562     9 
12554 12557 12560 12563     9 
12558 12557 12560 12561     9 
12558 12557 12560 12562     9 
12558 12557 12560 12563     9 
12559 12557 12560 12561     9 
12559 12557 12560 12562     9 
12559 12557 12560 12563     9 
12557 12560 12563 12564     9 
12557 12560 12563 12565     9 
12557 12560 12563 12566     9 
12561 12560 12563 12564     9 
12561 12560 12563 12565     9 
12561 12560 12563 12566     9 
12562 12560 12563 12564     9 
12562 12560 12563 12565     9 
12562 12560 12563 12566     9 
12560 12563 12566 12567     9 
12560 12563 12566 12568     9 
12560 12563 12566 12569     9 
12564 12563 12566 12567     9 
12564 12563 12566 12568     9 
12564 12563 12566 12569     9 
12565 12563 12566 12567     9 
12565 12563 12566 12568     9 
12565 12563 12566 12569     9 
12563 12566 12569 12570     9 
12563 12566 12569 12571     9 
12563 12566 12569 12572     9 
12567 12566 12569 12570     9 
12567 12566 12569 12571     9 
12567 12566 12569 12572     9 
12568 12566 12569 12570     9 
12568 12566 12569 12571     9 
12568 12566 12569 12572     9 
12566 12569 12572 12573     9 
12566 12569 12572 12574     9 
12566 12569 12572 12575     9 
12570 12569 12572 12573     9 
12570 12569 12572 12574     9 
12570 12569 12572 12575     9 
12571 12569 12572 12573     9 
12571 12569 12572 12574     9 
12571 12569 12572 12575     9 
12569 12572 12575 12576     9 
12569 12572 12575 12577     9 
12569 12572 12575 12578     9 
12573 12572 12575 12576     9 
12573 12572 12575 12577     9 
12573 12572 12575 12578     9 
12574 12572 12575 12576     9 
12574 12572 12575 12577     9 
12574 12572 12575 12578     9 
12572 12575 12578 12579     9 
12572 12575 12578 12580     9 
12572 12575 12578 12581     9 
12576 12575 12578 12579     9 
12576 12575 12578 12580     9 
12576 12575 12578 12581     9 
12577 12575 12578 12579     9 
12577 12575 12578 12580     9 
12577 12575 12578 12581     9 
12575 12578 12581 12582     9 
12575 12578 12581 12583     9 
12575 12578 12581 12584     9 
12579 12578 12581 12582     9 
12579 12578 12581 12583     9 
12579 12578 12581 12584     9 
12580 12578 12581 12582     9 
12580 12578 12581 12583     9 
12580 12578 12581 12584     9 
12578 12581 12584 12585     9 
12578 12581 12584 12586     9 
12578 12581 12584 12587     9 
12582 12581 12584 12585     9 
12582 12581 12584 12586     9 
12582 12581 12584 12587     9 
12583 12581 12584 12585     9 
12583 12581 12584 12586     9 
12583 12581 12584 12587     9 
12581 12584 12587 12588     9 
12581 12584 12587 12589     9 
12581 12584 12587 12590     9 
12585 12584 12587 12588     9 
12585 12584 12587 12589     9 
12585 12584 12587 12590     9 
12586 12584 12587 12588     9 
12586 12584 12587 12589     9 
12586 12584 12587 12590     9 
12584 12587 12590 12591     9 
12584 12587 12590 12592     9 
12584 12587 12590 12593     9 
12588 12587 12590 12591     9 
12588 12587 12590 12592     9 
12588 12587 12590 12593     9 
12589 12587 12590 12591     9 
12589 12587 12590 12592     9 
12589 12587 12590 12593     9 
12587 12590 12593 12594     9 
12587 12590 12593 12595     9 
12587 12590 12593 12596     9 
12591 12590 12593 12594     9 
12591 12590 12593 12595     9 
12591 12590 12593 12596     9 
12592 12590 12593 12594     9 
12592 12590 12593 12595     9 
12592 12590 12593 12596     9 
12601 12597 12598 12599     9 
12601 12597 12598 12600     9 
12601 12597 12598 12613     9 
12605 12597 12598 12599     9 
12605 12597 12598 12600     9 
12605 12597 12598 12613     9 
12609 12597 12598 12599     9 
12609 12597 12598 12600     9 
12609 12597 12598 12613     9 
12598 12597 12601 12602     9 
12598 12597 12601 12603     9 
12598 12597 12601 12604     9 
12605 12597 12601 12602     9 
12605 12597 12601 12603     9 
12605 12597 12601 12604     9 
12609 12597 12601 12602     9 
12609 12597 12601 12603     9 
12609 12597 12601 12604     9 
12598 12597 12605 12606     9 
12598 12597 12605 12607     9 
12598 12597 12605 12608     9 
12601 12597 12605 12606     9 
12601 12597 12605 12607     9 
12601 12597 12605 12608     9 
12609 12597 12605 12606     9 
12609 12597 12605 12607     9 
12609 12597 12605 12608     9 
12598 12597 12609 12610     9 
12598 12597 12609 12611     9 
12598 12597 12609 12612     9 
12601 12597 12609 12610     9 
12601 12597 12609 12611     9 
12601 12597 12609 12612     9 
12605 12597 12609 12610     9 
12605 12597 12609 12611     9 
12605 12597 12609 12612     9 
12597 12598 12613 12614     9 
12597 12598 12613 12615     9 
12597 12598 12613 12619     9 
12599 12598 12613 12614     9 
12599 12598 12613 12615     9 
12599 12598 12613 12619     9 
12600 12598 12613 12614     9 
12600 12598 12613 12615     9 
12600 12598 12613 12619     9 
12598 12613 12619 12616     9 
12614 12613 12619 12616     9 
12615 12613 12619 12616     9 
12617 12616 12619 12613     9 
12618 12616 12619 12613     9 
12620 12616 12619 12613     9 
12617 12616 12620 12621     9 
12618 12616 12620 12621     9 
12619 12616 12620 12621     9 
12616 12620 12621 12622     9 
12616 12620 12621 12623     9 
12616 12620 12621 12624     9 
12620 12621 12624 12625     9 
12620 12621 12624 12626     9 
12620 12621 12624 12632     9 
12622 12621 12624 12625     9 
12622 12621 12624 12626     9 
12622 12621 12624 12632     9 
12623 12621 12624 12625     9 
12623 12621 12624 12626     9 
12623 12621 12624 12632     9 
12621 12624 12626 12627     9 
12625 12624 12626 12627     9 
12632 12624 12626 12627     9 
12621 12624 12632 12633     9 
12621 12624 12632 12634     9 
12621 12624 12632 12635     9 
12625 12624 12632 12633     9 
12625 12624 12632 12634     9 
12625 12624 12632 12635     9 
12626 12624 12632 12633     9 
12626 12624 12632 12634     9 
12626 12624 12632 12635     9 
12624 12626 12627 12628     9 
12624 12626 12627 12629     9 
12626 12627 12629 12630     9 
12626 12627 12629 12631     9 
12626 12627 12629 12641     9 
12628 12627 12629 12630     9 
12628 12627 12629 12631     9 
12628 12627 12629 12641     9 
12627 12629 12641 12642     9 
12627 12629 12641 12643     9 
12627 12629 12641 12644     9 
12630 12629 12641 12642     9 
12630 12629 12641 12643     9 
12630 12629 12641 12644     9 
12631 12629 12641 12642     9 
12631 12629 12641 12643     9 
12631 12629 12641 12644     9 
12624 12632 12635 12636     9 
12633 12632 12635 12636     9 
12634 12632 12635 12636     9 
12632 12635 12636 12637     9 
12632 12635 12636 12638     9 
12635 12636 12638 12639     9 
12635 12636 12638 12640     9 
12635 12636 12638 12688     9 
12637 12636 12638 12639     9 
12637 12636 12638 12640     9 
12637 12636 12638 12688     9 
12636 12638 12688 12689     9 
12636 12638 12688 12690     9 
12636 12638 12688 12691     9 
12639 12638 12688 12689     9 
12639 12638 12688 12690     9 
12639 12638 12688 12691     9 
12640 12638 12688 12689     9 
12640 12638 12688 12690     9 
12640 12638 12688 12691     9 
12629 12641 12644 12645     9 
12629 12641 12644 12646     9 
12629 12641 12644 12647     9 
12642 12641 12644 12645     9 
12642 12641 12644 12646     9 
12642 12641 12644 12647     9 
12643 12641 12644 12645     9 
12643 12641 12644 12646     9 
12643 12641 12644 12647     9 
12641 12644 12647 12648     9 
12641 12644 12647 12649     9 
12641 12644 12647 12650     9 
12645 12644 12647 12648     9 
12645 12644 12647 12649     9 
12645 12644 12647 12650     9 
12646 12644 12647 12648     9 
12646 12644 12647 12649     9 
12646 12644 12647 12650     9 
12644 12647 12650 12651     9 
12644 12647 12650 12652     9 
12644 12647 12650 12653     9 
12648 12647 12650 12651     9 
12648 12647 12650 12652     9 
12648 12647 12650 12653     9 
12649 12647 12650 12651     9 
12649 12647 12650 12652     9 
12649 12647 12650 12653     9 
12647 12650 12653 12654     9 
12647 12650 12653 12655     9 
12647 12650 12653 12656     9 
12651 12650 12653 12654     9 
12651 12650 12653 12655     9 
12651 12650 12653 12656     9 
12652 12650 12653 12654     9 
12652 12650 12653 12655     9 
12652 12650 12653 12656     9 
12650 12653 12656 12657     9 
12650 12653 12656 12658     9 
12650 12653 12656 12659     9 
12654 12653 12656 12657     9 
12654 12653 12656 12658     9 
12654 12653 12656 12659     9 
12655 12653 12656 12657     9 
12655 12653 12656 12658     9 
12655 12653 12656 12659     9 
12653 12656 12659 12660     9 
12653 12656 12659 12661     9 
12657 12656 12659 12660     9 
12657 12656 12659 12661     9 
12658 12656 12659 12660     9 
12658 12656 12659 12661     9 
12656 12659 12661 12662     9 
12656 12659 12661 12663     9 
12660 12659 12661 12662     9 
12660 12659 12661 12663     9 
12659 12661 12663 12664     9 
12659 12661 12663 12665     9 
12659 12661 12663 12666     9 
12662 12661 12663 12664     9 
12662 12661 12663 12665     9 
12662 12661 12663 12666     9 
12661 12663 12666 12667     9 
12661 12663 12666 12668     9 
12661 12663 12666 12669     9 
12664 12663 12666 12667     9 
12664 12663 12666 12668     9 
12664 12663 12666 12669     9 
12665 12663 12666 12667     9 
12665 12663 12666 12668     9 
12665 12663 12666 12669     9 
12663 12666 12669 12670     9 
12663 12666 12669 12671     9 
12663 12666 12669 12672     9 
12667 12666 12669 12670     9 
12667 12666 12669 12671     9 
12667 12666 12669 12672     9 
12668 12666 12669 12670     9 
12668 12666 12669 12671     9 
12668 12666 12669 12672     9 
12666 12669 12672 12673     9 
12666 12669 12672 12674     9 
12666 12669 12672 12675     9 
12670 12669 12672 12673     9 
12670 12669 12672 12674     9 
12670 12669 12672 12675     9 
12671 12669 12672 12673     9 
12671 12669 12672 12674     9 
12671 12669 12672 12675     9 
12669 12672 12675 12676     9 
12669 12672 12675 12677     9 
12669 12672 12675 12678     9 
12673 12672 12675 12676     9 
12673 12672 12675 12677     9 
12673 12672 12675 12678     9 
12674 12672 12675 12676     9 
12674 12672 12675 12677     9 
12674 12672 12675 12678     9 
12672 12675 12678 12679     9 
12672 12675 12678 12680     9 
12672 12675 12678 12681     9 
12676 12675 12678 12679     9 
12676 12675 12678 12680     9 
12676 12675 12678 12681     9 
12677 12675 12678 12679     9 
12677 12675 12678 12680     9 
12677 12675 12678 12681     9 
12675 12678 12681 12682     9 
12675 12678 12681 12683     9 
12675 12678 12681 12684     9 
12679 12678 12681 12682     9 
12679 12678 12681 12683     9 
12679 12678 12681 12684     9 
12680 12678 12681 12682     9 
12680 12678 12681 12683     9 
12680 12678 12681 12684     9 
12678 12681 12684 12685     9 
12678 12681 12684 12686     9 
12678 12681 12684 12687     9 
12682 12681 12684 12685     9 
12682 12681 12684 12686     9 
12682 12681 12684 12687     9 
12683 12681 12684 12685     9 
12683 12681 12684 12686     9 
12683 12681 12684 12687     9 
12638 12688 12691 12692     9 
12638 12688 12691 12693     9 
12638 12688 12691 12694     9 
12689 12688 12691 12692     9 
12689 12688 12691 12693     9 
12689 12688 12691 12694     9 
12690 12688 12691 12692     9 
12690 12688 12691 12693     9 
12690 12688 12691 12694     9 
12688 12691 12694 12695     9 
12688 12691 12694 12696     9 
12688 12691 12694 12697     9 
12692 12691 12694 12695     9 
12692 12691 12694 12696     9 
12692 12691 12694 12697     9 
12693 12691 12694 12695     9 
12693 12691 12694 12696     9 
12693 12691 12694 12697     9 
12691 12694 12697 12698     9 
12691 12694 12697 12699     9 
12691 12694 12697 12700     9 
12695 12694 12697 12698     9 
12695 12694 12697 12699     9 
12695 12694 12697 12700     9 
12696 12694 12697 12698     9 
12696 12694 12697 12699     9 
12696 12694 12697 12700     9 
12694 12697 12700 12701     9 
12694 12697 12700 12702     9 
12694 12697 12700 12703     9 
12698 12697 12700 12701     9 
12698 12697 12700 12702     9 
12698 12697 12700 12703     9 
12699 12697 12700 12701     9 
12699 12697 12700 12702     9 
12699 12697 12700 12703     9 
12697 12700 12703 12704     9 
12697 12700 12703 12705     9 
12697 12700 12703 12706     9 
12701 12700 12703 12704     9 
12701 12700 12703 12705     9 
12701 12700 12703 12706     9 
12702 12700 12703 12704     9 
12702 12700 12703 12705     9 
12702 12700 12703 12706     9 
12700 12703 12706 12707     9 
12700 12703 12706 12708     9 
12700 12703 12706 12709     9 
12704 12703 12706 12707     9 
12704 12703 12706 12708     9 
12704 12703 12706 12709     9 
12705 12703 12706 12707     9 
12705 12703 12706 12708     9 
12705 12703 12706 12709     9 
12703 12706 12709 12710     9 
12703 12706 12709 12711     9 
12703 12706 12709 12712     9 
12707 12706 12709 12710     9 
12707 12706 12709 12711     9 
12707 12706 12709 12712     9 
12708 12706 12709 12710     9 
12708 12706 12709 12711     9 
12708 12706 12709 12712     9 
12706 12709 12712 12713     9 
12706 12709 12712 12714     9 
12706 12709 12712 12715     9 
12710 12709 12712 12713     9 
12710 12709 12712 12714     9 
12710 12709 12712 12715     9 
12711 12709 12712 12713     9 
12711 12709 12712 12714     9 
12711 12709 12712 12715     9 
12709 12712 12715 12716     9 
12709 12712 12715 12717     9 
12709 12712 12715 12718     9 
12713 12712 12715 12716     9 
12713 12712 12715 12717     9 
12713 12712 12715 12718     9 
12714 12712 12715 12716     9 
12714 12712 12715 12717     9 
12714 12712 12715 12718     9 
12712 12715 12718 12719     9 
12712 12715 12718 12720     9 
12712 12715 12718 12721     9 
12716 12715 12718 12719     9 
12716 12715 12718 12720     9 
12716 12715 12718 12721     9 
12717 12715 12718 12719     9 
12717 12715 12718 12720     9 
12717 12715 12718 12721     9 
12715 12718 12721 12722     9 
12715 12718 12721 12723     9 
12715 12718 12721 12724     9 
12719 12718 12721 12722     9 
12719 12718 12721 12723     9 
12719 12718 12721 12724     9 
12720 12718 12721 12722     9 
12720 12718 12721 12723     9 
12720 12718 12721 12724     9 
12718 12721 12724 12725     9 
12718 12721 12724 12726     9 
12718 12721 12724 12727     9 
12722 12721 12724 12725     9 
12722 12721 12724 12726     9 
12722 12721 12724 12727     9 
12723 12721 12724 12725     9 
12723 12721 12724 12726     9 
12723 12721 12724 12727     9 
12721 12724 12727 12728     9 
12721 12724 12727 12729     9 
12721 12724 12727 12730     9 
12725 12724 12727 12728     9 
12725 12724 12727 12729     9 
12725 12724 12727 12730     9 
12726 12724 12727 12728     9 
12726 12724 12727 12729     9 
12726 12724 12727 12730     9 
12735 12731 12732 12733     9 
12735 12731 12732 12734     9 
12735 12731 12732 12747     9 
12739 12731 12732 12733     9 
12739 12731 12732 12734     9 
12739 12731 12732 12747     9 
12743 12731 12732 12733     9 
12743 12731 12732 12734     9 
12743 12731 12732 12747     9 
12732 12731 12735 12736     9 
12732 12731 12735 12737     9 
12732 12731 12735 12738     9 
12739 12731 12735 12736     9 
12739 12731 12735 12737     9 
12739 12731 12735 12738     9 
12743 12731 12735 12736     9 
12743 12731 12735 12737     9 
12743 12731 12735 12738     9 
12732 12731 12739 12740     9 
12732 12731 12739 12741     9 
12732 12731 12739 12742     9 
12735 12731 12739 12740     9 
12735 12731 12739 12741     9 
12735 12731 12739 12742     9 
12743 12731 12739 12740     9 
12743 12731 12739 12741     9 
12743 12731 12739 12742     9 
12732 12731 12743 12744     9 
12732 12731 12743 12745     9 
12732 12731 12743 12746     9 
12735 12731 12743 12744     9 
12735 12731 12743 12745     9 
12735 12731 12743 12746     9 
12739 12731 12743 12744     9 
12739 12731 12743 12745     9 
12739 12731 12743 12746     9 
12731 12732 12747 12748     9 
12731 12732 12747 12749     9 
12731 12732 12747 12753     9 
12733 12732 12747 12748     9 
12733 12732 12747 12749     9 
12733 12732 12747 12753     9 
12734 12732 12747 12748     9 
12734 12732 12747 12749     9 
12734 12732 12747 12753     9 
12732 12747 12753 12750     9 
12748 12747 12753 12750     9 
12749 12747 12753 12750     9 
12751 12750 12753 12747     9 
12752 12750 12753 12747     9 
12754 12750 12753 12747     9 
12751 12750 12754 12755     9 
12752 12750 12754 12755     9 
12753 12750 12754 12755     9 
12750 12754 12755 12756     9 
12750 12754 12755 12757     9 
12750 12754 12755 12758     9 
12754 12755 12758 12759     9 
12754 12755 12758 12760     9 
12754 12755 12758 12766     9 
12756 12755 12758 12759     9 
12756 12755 12758 12760     9 
12756 12755 12758 12766     9 
12757 12755 12758 12759     9 
12757 12755 12758 12760     9 
12757 12755 12758 12766     9 
12755 12758 12760 12761     9 
12759 12758 12760 12761     9 
12766 12758 12760 12761     9 
12755 12758 12766 12767     9 
12755 12758 12766 12768     9 
12755 12758 12766 12769     9 
12759 12758 12766 12767     9 
12759 12758 12766 12768     9 
12759 12758 12766 12769     9 
12760 12758 12766 12767     9 
12760 12758 12766 12768     9 
12760 12758 12766 12769     9 
12758 12760 12761 12762     9 
12758 12760 12761 12763     9 
12760 12761 12763 12764     9 
12760 12761 12763 12765     9 
12760 12761 12763 12775     9 
12762 12761 12763 12764     9 
12762 12761 12763 12765     9 
12762 12761 12763 12775     9 
12761 12763 12775 12776     9 
12761 12763 12775 12777     9 
12761 12763 12775 12778     9 
12764 12763 12775 12776     9 
12764 12763 12775 12777     9 
12764 12763 12775 12778     9 
12765 12763 12775 12776     9 
12765 12763 12775 12777     9 
12765 12763 12775 12778     9 
12758 12766 12769 12770     9 
12767 12766 12769 12770     9 
12768 12766 12769 12770     9 
12766 12769 12770 12771     9 
12766 12769 12770 12772     9 
12769 12770 12772 12773     9 
12769 12770 12772 12774     9 
12769 12770 12772 12822     9 
12771 12770 12772 12773     9 
12771 12770 12772 12774     9 
12771 12770 12772 12822     9 
12770 12772 12822 12823     9 
12770 12772 12822 12824     9 
12770 12772 12822 12825     9 
12773 12772 12822 12823     9 
12773 12772 12822 12824     9 
12773 12772 12822 12825     9 
12774 12772 12822 12823     9 
12774 12772 12822 12824     9 
12774 12772 12822 12825     9 
12763 12775 12778 12779     9 
12763 12775 12778 12780     9 
12763 12775 12778 12781     9 
12776 12775 12778 12779     9 
12776 12775 12778 12780     9 
12776 12775 12778 12781     9 
12777 12775 12778 12779     9 
12777 12775 12778 12780     9 
12777 12775 12778 12781     9 
12775 12778 12781 12782     9 
12775 12778 12781 12783     9 
12775 12778 12781 12784     9 
12779 12778 12781 12782     9 
12779 12778 12781 12783     9 
12779 12778 12781 12784     9 
12780 12778 12781 12782     9 
12780 12778 12781 12783     9 
12780 12778 12781 12784     9 
12778 12781 12784 12785     9 
12778 12781 12784 12786     9 
12778 12781 12784 12787     9 
12782 12781 12784 12785     9 
12782 12781 12784 12786     9 
12782 12781 12784 12787     9 
12783 12781 12784 12785     9 
12783 12781 12784 12786     9 
12783 12781 12784 12787     9 
12781 12784 12787 12788     9 
12781 12784 12787 12789     9 
12781 12784 12787 12790     9 
12785 12784 12787 12788     9 
12785 12784 12787 12789     9 
12785 12784 12787 12790     9 
12786 12784 12787 12788     9 
12786 12784 12787 12789     9 
12786 12784 12787 12790     9 
12784 12787 12790 12791     9 
12784 12787 12790 12792     9 
12784 12787 12790 12793     9 
12788 12787 12790 12791     9 
12788 12787 12790 12792     9 
12788 12787 12790 12793     9 
12789 12787 12790 12791     9 
12789 12787 12790 12792     9 
12789 12787 12790 12793     9 
12787 12790 12793 12794     9 
12787 12790 12793 12795     9 
12791 12790 12793 12794     9 
12791 12790 12793 12795     9 
12792 12790 12793 12794     9 
12792 12790 12793 12795     9 
12790 12793 12795 12796     9 
12790 12793 12795 12797     9 
12794 12793 12795 12796     9 
12794 12793 12795 12797     9 
12793 12795 12797 12798     9 
12793 12795 12797 12799     9 
12793 12795 12797 12800     9 
12796 12795 12797 12798     9 
12796 12795 12797 12799     9 
12796 12795 12797 12800     9 
12795 12797 12800 12801     9 
12795 12797 12800 12802     9 
12795 12797 12800 12803     9 
12798 12797 12800 12801     9 
12798 12797 12800 12802     9 
12798 12797 12800 12803     9 
12799 12797 12800 12801     9 
12799 12797 12800 12802     9 
12799 12797 12800 12803     9 
12797 12800 12803 12804     9 
12797 12800 12803 12805     9 
12797 12800 12803 12806     9 
12801 12800 12803 12804     9 
12801 12800 12803 12805     9 
12801 12800 12803 12806     9 
12802 12800 12803 12804     9 
12802 12800 12803 12805     9 
12802 12800 12803 12806     9 
12800 12803 12806 12807     9 
12800 12803 12806 12808     9 
12800 12803 12806 12809     9 
12804 12803 12806 12807     9 
12804 12803 12806 12808     9 
12804 12803 12806 12809     9 
12805 12803 12806 12807     9 
12805 12803 12806 12808     9 
12805 12803 12806 12809     9 
12803 12806 12809 12810     9 
12803 12806 12809 12811     9 
12803 12806 12809 12812     9 
12807 12806 12809 12810     9 
12807 12806 12809 12811     9 
12807 12806 12809 12812     9 
12808 12806 12809 12810     9 
12808 12806 12809 12811     9 
12808 12806 12809 12812     9 
12806 12809 12812 12813     9 
12806 12809 12812 12814     9 
12806 12809 12812 12815     9 
12810 12809 12812 12813     9 
12810 12809 12812 12814     9 
12810 12809 12812 12815     9 
12811 12809 12812 12813     9 
12811 12809 12812 12814     9 
12811 12809 12812 12815     9 
12809 12812 12815 12816     9 
12809 12812 12815 12817     9 
12809 12812 12815 12818     9 
12813 12812 12815 12816     9 
12813 12812 12815 12817     9 
12813 12812 12815 12818     9 
12814 12812 12815 12816     9 
12814 12812 12815 12817     9 
12814 12812 12815 12818     9 
12812 12815 12818 12819     9 
12812 12815 12818 12820     9 
12812 12815 12818 12821     9 
12816 12815 12818 12819     9 
12816 12815 12818 12820     9 
12816 12815 12818 12821     9 
12817 12815 12818 12819     9 
12817 12815 12818 12820     9 
12817 12815 12818 12821     9 
12772 12822 12825 12826     9 
12772 12822 12825 12827     9 
12772 12822 12825 12828     9 
12823 12822 12825 12826     9 
12823 12822 12825 12827     9 
12823 12822 12825 12828     9 
12824 12822 12825 12826     9 
12824 12822 12825 12827     9 
12824 12822 12825 12828     9 
12822 12825 12828 12829     9 
12822 12825 12828 12830     9 
12822 12825 12828 12831     9 
12826 12825 12828 12829     9 
12826 12825 12828 12830     9 
12826 12825 12828 12831     9 
12827 12825 12828 12829     9 
12827 12825 12828 12830     9 
12827 12825 12828 12831     9 
12825 12828 12831 12832     9 
12825 12828 12831 12833     9 
12825 12828 12831 12834     9 
12829 12828 12831 12832     9 
12829 12828 12831 12833     9 
12829 12828 12831 12834     9 
12830 12828 12831 12832     9 
12830 12828 12831 12833     9 
12830 12828 12831 12834     9 
12828 12831 12834 12835     9 
12828 12831 12834 12836     9 
12828 12831 12834 12837     9 
12832 12831 12834 12835     9 
12832 12831 12834 12836     9 
12832 12831 12834 12837     9 
12833 12831 12834 12835     9 
12833 12831 12834 12836     9 
12833 12831 12834 12837     9 
12831 12834 12837 12838     9 
12831 12834 12837 12839     9 
12831 12834 12837 12840     9 
12835 12834 12837 12838     9 
12835 12834 12837 12839     9 
12835 12834 12837 12840     9 
12836 12834 12837 12838     9 
12836 12834 12837 12839     9 
12836 12834 12837 12840     9 
12834 12837 12840 12841     9 
12834 12837 12840 12842     9 
12834 12837 12840 12843     9 
12838 12837 12840 12841     9 
12838 12837 12840 12842     9 
12838 12837 12840 12843     9 
12839 12837 12840 12841     9 
12839 12837 12840 12842     9 
12839 12837 12840 12843     9 
12837 12840 12843 12844     9 
12837 12840 12843 12845     9 
12837 12840 12843 12846     9 
12841 12840 12843 12844     9 
12841 12840 12843 12845     9 
12841 12840 12843 12846     9 
12842 12840 12843 12844     9 
12842 12840 12843 12845     9 
12842 12840 12843 12846     9 
12840 12843 12846 12847     9 
12840 12843 12846 12848     9 
12840 12843 12846 12849     9 
12844 12843 12846 12847     9 
12844 12843 12846 12848     9 
12844 12843 12846 12849     9 
12845 12843 12846 12847     9 
12845 12843 12846 12848     9 
12845 12843 12846 12849     9 
12843 12846 12849 12850     9 
12843 12846 12849 12851     9 
12843 12846 12849 12852     9 
12847 12846 12849 12850     9 
12847 12846 12849 12851     9 
12847 12846 12849 12852     9 
12848 12846 12849 12850     9 
12848 12846 12849 12851     9 
12848 12846 12849 12852     9 
12846 12849 12852 12853     9 
12846 12849 12852 12854     9 
12846 12849 12852 12855     9 
12850 12849 12852 12853     9 
12850 12849 12852 12854     9 
12850 12849 12852 12855     9 
12851 12849 12852 12853     9 
12851 12849 12852 12854     9 
12851 12849 12852 12855     9 
12849 12852 12855 12856     9 
12849 12852 12855 12857     9 
12849 12852 12855 12858     9 
12853 12852 12855 12856     9 
12853 12852 12855 12857     9 
12853 12852 12855 12858     9 
12854 12852 12855 12856     9 
12854 12852 12855 12857     9 
12854 12852 12855 12858     9 
12852 12855 12858 12859     9 
12852 12855 12858 12860     9 
12852 12855 12858 12861     9 
12856 12855 12858 12859     9 
12856 12855 12858 12860     9 
12856 12855 12858 12861     9 
12857 12855 12858 12859     9 
12857 12855 12858 12860     9 
12857 12855 12858 12861     9 
12855 12858 12861 12862     9 
12855 12858 12861 12863     9 
12855 12858 12861 12864     9 
12859 12858 12861 12862     9 
12859 12858 12861 12863     9 
12859 12858 12861 12864     9 
12860 12858 12861 12862     9 
12860 12858 12861 12863     9 
12860 12858 12861 12864     9 
12869 12865 12866 12867     9 
12869 12865 12866 12868     9 
12869 12865 12866 12881     9 
12873 12865 12866 12867     9 
12873 12865 12866 12868     9 
12873 12865 12866 12881     9 
12877 12865 12866 12867     9 
12877 12865 12866 12868     9 
12877 12865 12866 12881     9 
12866 12865 12869 12870     9 
12866 12865 12869 12871     9 
12866 12865 12869 12872     9 
12873 12865 12869 12870     9 
12873 12865 12869 12871     9 
12873 12865 12869 12872     9 
12877 12865 12869 12870     9 
12877 12865 12869 12871     9 
12877 12865 12869 12872     9 
12866 12865 12873 12874     9 
12866 12865 12873 12875     9 
12866 12865 12873 12876     9 
12869 12865 12873 12874     9 
12869 12865 12873 12875     9 
12869 12865 12873 12876     9 
12877 12865 12873 12874     9 
12877 12865 12873 12875     9 
12877 12865 12873 12876     9 
12866 12865 12877 12878     9 
12866 12865 12877 12879     9 
12866 12865 12877 12880     9 
12869 12865 12877 12878     9 
12869 12865 12877 12879     9 
12869 12865 12877 12880     9 
12873 12865 12877 12878     9 
12873 12865 12877 12879     9 
12873 12865 12877 12880     9 
12865 12866 12881 12882     9 
12865 12866 12881 12883     9 
12865 12866 12881 12887     9 
12867 12866 12881 12882     9 
12867 12866 12881 12883     9 
12867 12866 12881 12887     9 
12868 12866 12881 12882     9 
12868 12866 12881 12883     9 
12868 12866 12881 12887     9 
12866 12881 12887 12884     9 
12882 12881 12887 12884     9 
12883 12881 12887 12884     9 
12885 12884 12887 12881     9 
12886 12884 12887 12881     9 
12888 12884 12887 12881     9 
12885 12884 12888 12889     9 
12886 12884 12888 12889     9 
12887 12884 12888 12889     9 
12884 12888 12889 12890     9 
12884 12888 12889 12891     9 
12884 12888 12889 12892     9 
12888 12889 12892 12893     9 
12888 12889 12892 12894     9 
12888 12889 12892 12900     9 
12890 12889 12892 12893     9 
12890 12889 12892 12894     9 
12890 12889 12892 12900     9 
12891 12889 12892 12893     9 
12891 12889 12892 12894     9 
12891 12889 12892 12900     9 
12889 12892 12894 12895     9 
12893 12892 12894 12895     9 
12900 12892 12894 12895     9 
12889 12892 12900 12901     9 
12889 12892 12900 12902     9 
12889 12892 12900 12903     9 
12893 12892 12900 12901     9 
12893 12892 12900 12902     9 
12893 12892 12900 12903     9 
12894 12892 12900 12901     9 
12894 12892 12900 12902     9 
12894 12892 12900 12903     9 
12892 12894 12895 12896     9 
12892 12894 12895 12897     9 
12894 12895 12897 12898     9 
12894 12895 12897 12899     9 
12894 12895 12897 12909     9 
12896 12895 12897 12898     9 
12896 12895 12897 12899     9 
12896 12895 12897 12909     9 
12895 12897 12909 12910     9 
12895 12897 12909 12911     9 
12895 12897 12909 12912     9 
12898 12897 12909 12910     9 
12898 12897 12909 12911     9 
12898 12897 12909 12912     9 
12899 12897 12909 12910     9 
12899 12897 12909 12911     9 
12899 12897 12909 12912     9 
12892 12900 12903 12904     9 
12901 12900 12903 12904     9 
12902 12900 12903 12904     9 
12900 12903 12904 12905     9 
12900 12903 12904 12906     9 
12903 12904 12906 12907     9 
12903 12904 12906 12908     9 
12903 12904 12906 12956     9 
12905 12904 12906 12907     9 
12905 12904 12906 12908     9 
12905 12904 12906 12956     9 
12904 12906 12956 12957     9 
12904 12906 12956 12958     9 
12904 12906 12956 12959     9 
12907 12906 12956 12957     9 
12907 12906 12956 12958     9 
12907 12906 12956 12959     9 
12908 12906 12956 12957     9 
12908 12906 12956 12958     9 
12908 12906 12956 12959     9 
12897 12909 12912 12913     9 
12897 12909 12912 12914     9 
12897 12909 12912 12915     9 
12910 12909 12912 12913     9 
12910 12909 12912 12914     9 
12910 12909 12912 12915     9 
12911 12909 12912 12913     9 
12911 12909 12912 12914     9 
12911 12909 12912 12915     9 
12909 12912 12915 12916     9 
12909 12912 12915 12917     9 
12909 12912 12915 12918     9 
12913 12912 12915 12916     9 
12913 12912 12915 12917     9 
12913 12912 12915 12918     9 
12914 12912 12915 12916     9 
12914 12912 12915 12917     9 
12914 12912 12915 12918     9 
12912 12915 12918 12919     9 
12912 12915 12918 12920     9 
12912 12915 12918 12921     9 
12916 12915 12918 12919     9 
12916 12915 12918 12920     9 
12916 12915 12918 12921     9 
12917 12915 12918 12919     9 
12917 12915 12918 12920     9 
12917 12915 12918 12921     9 
12915 12918 12921 12922     9 
12915 12918 12921 12923     9 
12915 12918 12921 12924     9 
12919 12918 12921 12922     9 
12919 12918 12921 12923     9 
12919 12918 12921 12924     9 
12920 12918 12921 12922     9 
12920 12918 12921 12923     9 
12920 12918 12921 12924     9 
12918 12921 12924 12925     9 
12918 12921 12924 12926     9 
12918 12921 12924 12927     9 
12922 12921 12924 12925     9 
12922 12921 12924 12926     9 
12922 12921 12924 12927     9 
12923 12921 12924 12925     9 
12923 12921 12924 12926     9 
12923 12921 12924 12927     9 
12921 12924 12927 12928     9 
12921 12924 12927 12929     9 
12925 12924 12927 12928     9 
12925 12924 12927 12929     9 
12926 12924 12927 12928     9 
12926 12924 12927 12929     9 
12924 12927 12929 12930     9 
12924 12927 12929 12931     9 
12928 12927 12929 12930     9 
12928 12927 12929 12931     9 
12927 12929 12931 12932     9 
12927 12929 12931 12933     9 
12927 12929 12931 12934     9 
12930 12929 12931 12932     9 
12930 12929 12931 12933     9 
12930 12929 12931 12934     9 
12929 12931 12934 12935     9 
12929 12931 12934 12936     9 
12929 12931 12934 12937     9 
12932 12931 12934 12935     9 
12932 12931 12934 12936     9 
12932 12931 12934 12937     9 
12933 12931 12934 12935     9 
12933 12931 12934 12936     9 
12933 12931 12934 12937     9 
12931 12934 12937 12938     9 
12931 12934 12937 12939     9 
12931 12934 12937 12940     9 
12935 12934 12937 12938     9 
12935 12934 12937 12939     9 
12935 12934 12937 12940     9 
12936 12934 12937 12938     9 
12936 12934 12937 12939     9 
12936 12934 12937 12940     9 
12934 12937 12940 12941     9 
12934 12937 12940 12942     9 
12934 12937 12940 12943     9 
12938 12937 12940 12941     9 
12938 12937 12940 12942     9 
12938 12937 12940 12943     9 
12939 12937 12940 12941     9 
12939 12937 12940 12942     9 
12939 12937 12940 12943     9 
12937 12940 12943 12944     9 
12937 12940 12943 12945     9 
12937 12940 12943 12946     9 
12941 12940 12943 12944     9 
12941 12940 12943 12945     9 
12941 12940 12943 12946     9 
12942 12940 12943 12944     9 
12942 12940 12943 12945     9 
12942 12940 12943 12946     9 
12940 12943 12946 12947     9 
12940 12943 12946 12948     9 
12940 12943 12946 12949     9 
12944 12943 12946 12947     9 
12944 12943 12946 12948     9 
12944 12943 12946 12949     9 
12945 12943 12946 12947     9 
12945 12943 12946 12948     9 
12945 12943 12946 12949     9 
12943 12946 12949 12950     9 
12943 12946 12949 12951     9 
12943 12946 12949 12952     9 
12947 12946 12949 12950     9 
12947 12946 12949 12951     9 
12947 12946 12949 12952     9 
12948 12946 12949 12950     9 
12948 12946 12949 12951     9 
12948 12946 12949 12952     9 
12946 12949 12952 12953     9 
12946 12949 12952 12954     9 
12946 12949 12952 12955     9 
12950 12949 12952 12953     9 
12950 12949 12952 12954     9 
12950 12949 12952 12955     9 
12951 12949 12952 12953     9 
12951 12949 12952 12954     9 
12951 12949 12952 12955     9 
12906 12956 12959 12960     9 
12906 12956 12959 12961     9 
12906 12956 12959 12962     9 
12957 12956 12959 12960     9 
12957 12956 12959 12961     9 
12957 12956 12959 12962     9 
12958 12956 12959 12960     9 
12958 12956 12959 12961     9 
12958 12956 12959 12962     9 
12956 12959 12962 12963     9 
12956 12959 12962 12964     9 
12956 12959 12962 12965     9 
12960 12959 12962 12963     9 
12960 12959 12962 12964     9 
12960 12959 12962 12965     9 
12961 12959 12962 12963     9 
12961 12959 12962 12964     9 
12961 12959 12962 12965     9 
12959 12962 12965 12966     9 
12959 12962 12965 12967     9 
12959 12962 12965 12968     9 
12963 12962 12965 12966     9 
12963 12962 12965 12967     9 
12963 12962 12965 12968     9 
12964 12962 12965 12966     9 
12964 12962 12965 12967     9 
12964 12962 12965 12968     9 
12962 12965 12968 12969     9 
12962 12965 12968 12970     9 
12962 12965 12968 12971     9 
12966 12965 12968 12969     9 
12966 12965 12968 12970     9 
12966 12965 12968 12971     9 
12967 12965 12968 12969     9 
12967 12965 12968 12970     9 
12967 12965 12968 12971     9 
12965 12968 12971 12972     9 
12965 12968 12971 12973     9 
12965 12968 12971 12974     9 
12969 12968 12971 12972     9 
12969 12968 12971 12973     9 
12969 12968 12971 12974     9 
12970 12968 12971 12972     9 
12970 12968 12971 12973     9 
12970 12968 12971 12974     9 
12968 12971 12974 12975     9 
12968 12971 12974 12976     9 
12968 12971 12974 12977     9 
12972 12971 12974 12975     9 
12972 12971 12974 12976     9 
12972 12971 12974 12977     9 
12973 12971 12974 12975     9 
12973 12971 12974 12976     9 
12973 12971 12974 12977     9 
12971 12974 12977 12978     9 
12971 12974 12977 12979     9 
12971 12974 12977 12980     9 
12975 12974 12977 12978     9 
12975 12974 12977 12979     9 
12975 12974 12977 12980     9 
12976 12974 12977 12978     9 
12976 12974 12977 12979     9 
12976 12974 12977 12980     9 
12974 12977 12980 12981     9 
12974 12977 12980 12982     9 
12974 12977 12980 12983     9 
12978 12977 12980 12981     9 
12978 12977 12980 12982     9 
12978 12977 12980 12983     9 
12979 12977 12980 12981     9 
12979 12977 12980 12982     9 
12979 12977 12980 12983     9 
12977 12980 12983 12984     9 
12977 12980 12983 12985     9 
12977 12980 12983 12986     9 
12981 12980 12983 12984     9 
12981 12980 12983 12985     9 
12981 12980 12983 12986     9 
12982 12980 12983 12984     9 
12982 12980 12983 12985     9 
12982 12980 12983 12986     9 
12980 12983 12986 12987     9 
12980 12983 12986 12988     9 
12980 12983 12986 12989     9 
12984 12983 12986 12987     9 
12984 12983 12986 12988     9 
12984 12983 12986 12989     9 
12985 12983 12986 12987     9 
12985 12983 12986 12988     9 
12985 12983 12986 12989     9 
12983 12986 12989 12990     9 
12983 12986 12989 12991     9 
12983 12986 12989 12992     9 
12987 12986 12989 12990     9 
12987 12986 12989 12991     9 
12987 12986 12989 12992     9 
12988 12986 12989 12990     9 
12988 12986 12989 12991     9 
12988 12986 12989 12992     9 
12986 12989 12992 12993     9 
12986 12989 12992 12994     9 
12986 12989 12992 12995     9 
12990 12989 12992 12993     9 
12990 12989 12992 12994     9 
12990 12989 12992 12995     9 
12991 12989 12992 12993     9 
12991 12989 12992 12994     9 
12991 12989 12992 12995     9 
12989 12992 12995 12996     9 
12989 12992 12995 12997     9 
12989 12992 12995 12998     9 
12993 12992 12995 12996     9 
12993 12992 12995 12997     9 
12993 12992 12995 12998     9 
12994 12992 12995 12996     9 
12994 12992 12995 12997     9 
12994 12992 12995 12998     9 
13003 12999 13000 13001     9 
13003 12999 13000 13002     9 
13003 12999 13000 13015     9 
13007 12999 13000 13001     9 
13007 12999 13000 13002     9 
13007 12999 13000 13015     9 
13011 12999 13000 13001     9 
13011 12999 13000 13002     9 
13011 12999 13000 13015     9 
13000 12999 13003 13004     9 
13000 12999 13003 13005     9 
13000 12999 13003 13006     9 
13007 12999 13003 13004     9 
13007 12999 13003 13005     9 
13007 12999 13003 13006     9 
13011 12999 13003 13004     9 
13011 12999 13003 13005     9 
13011 12999 13003 13006     9 
13000 12999 13007 13008     9 
13000 12999 13007 13009     9 
13000 12999 13007 13010     9 
13003 12999 13007 13008     9 
13003 12999 13007 13009     9 
13003 12999 13007 13010     9 
13011 12999 13007 13008     9 
13011 12999 13007 13009     9 
13011 12999 13007 13010     9 
13000 12999 13011 13012     9 
13000 12999 13011 13013     9 
13000 12999 13011 13014     9 
13003 12999 13011 13012     9 
13003 12999 13011 13013     9 
13003 12999 13011 13014     9 
13007 12999 13011 13012     9 
13007 12999 13011 13013     9 
13007 12999 13011 13014     9 
12999 13000 13015 13016     9 
12999 13000 13015 13017     9 
12999 13000 13015 13021     9 
13001 13000 13015 13016     9 
13001 13000 13015 13017     9 
13001 13000 13015 13021     9 
13002 13000 13015 13016     9 
13002 13000 13015 13017     9 
13002 13000 13015 13021     9 
13000 13015 13021 13018     9 
13016 13015 13021 13018     9 
13017 13015 13021 13018     9 
13019 13018 13021 13015     9 
13020 13018 13021 13015     9 
13022 13018 13021 13015     9 
13019 13018 13022 13023     9 
13020 13018 13022 13023     9 
13021 13018 13022 13023     9 
13018 13022 13023 13024     9 
13018 13022 13023 13025     9 
13018 13022 13023 13026     9 
13022 13023 13026 13027     9 
13022 13023 13026 13028     9 
13022 13023 13026 13034     9 
13024 13023 13026 13027     9 
13024 13023 13026 13028     9 
13024 13023 13026 13034     9 
13025 13023 13026 13027     9 
13025 13023 13026 13028     9 
13025 13023 13026 13034     9 
13023 13026 13028 13029     9 
13027 13026 13028 13029     9 
13034 13026 13028 13029     9 
13023 13026 13034 13035     9 
13023 13026 13034 13036     9 
13023 13026 13034 13037     9 
13027 13026 13034 13035     9 
13027 13026 13034 13036     9 
13027 13026 13034 13037     9 
13028 13026 13034 13035     9 
13028 13026 13034 13036     9 
13028 13026 13034 13037     9 
13026 13028 13029 13030     9 
13026 13028 13029 13031     9 
13028 13029 13031 13032     9 
13028 13029 13031 13033     9 
13028 13029 13031 13043     9 
13030 13029 13031 13032     9 
13030 13029 13031 13033     9 
13030 13029 13031 13043     9 
13029 13031 13043 13044     9 
13029 13031 13043 13045     9 
13029 13031 13043 13046     9 
13032 13031 13043 13044     9 
13032 13031 13043 13045     9 
13032 13031 13043 13046     9 
13033 13031 13043 13044     9 
13033 13031 13043 13045     9 
13033 13031 13043 13046     9 
13026 13034 13037 13038     9 
13035 13034 13037 13038     9 
13036 13034 13037 13038     9 
13034 13037 13038 13039     9 
13034 13037 13038 13040     9 
13037 13038 13040 13041     9 
13037 13038 13040 13042     9 
13037 13038 13040 13090     9 
13039 13038 13040 13041     9 
13039 13038 13040 13042     9 
13039 13038 13040 13090     9 
13038 13040 13090 13091     9 
13038 13040 13090 13092     9 
13038 13040 13090 13093     9 
13041 13040 13090 13091     9 
13041 13040 13090 13092     9 
13041 13040 13090 13093     9 
13042 13040 13090 13091     9 
13042 13040 13090 13092     9 
13042 13040 13090 13093     9 
13031 13043 13046 13047     9 
13031 13043 13046 13048     9 
13031 13043 13046 13049     9 
13044 13043 13046 13047     9 
13044 13043 13046 13048     9 
13044 13043 13046 13049     9 
13045 13043 13046 13047     9 
13045 13043 13046 13048     9 
13045 13043 13046 13049     9 
13043 13046 13049 13050     9 
13043 13046 13049 13051     9 
13043 13046 13049 13052     9 
13047 13046 13049 13050     9 
13047 13046 13049 13051     9 
13047 13046 13049 13052     9 
13048 13046 13049 13050     9 
13048 13046 13049 13051     9 
13048 13046 13049 13052     9 
13046 13049 13052 13053     9 
13046 13049 13052 13054     9 
13046 13049 13052 13055     9 
13050 13049 13052 13053     9 
13050 13049 13052 13054     9 
13050 13049 13052 13055     9 
13051 13049 13052 13053     9 
13051 13049 13052 13054     9 
13051 13049 13052 13055     9 
13049 13052 13055 13056     9 
13049 13052 13055 13057     9 
13049 13052 13055 13058     9 
13053 13052 13055 13056     9 
13053 13052 13055 13057     9 
13053 13052 13055 13058     9 
13054 13052 13055 13056     9 
13054 13052 13055 13057     9 
13054 13052 13055 13058     9 
13052 13055 13058 13059     9 
13052 13055 13058 13060     9 
13052 13055 13058 13061     9 
13056 13055 13058 13059     9 
13056 13055 13058 13060     9 
13056 13055 13058 13061     9 
13057 13055 13058 13059     9 
13057 13055 13058 13060     9 
13057 13055 13058 13061     9 
13055 13058 13061 13062     9 
13055 13058 13061 13063     9 
13059 13058 13061 13062     9 
13059 13058 13061 13063     9 
13060 13058 13061 13062     9 
13060 13058 13061 13063     9 
13058 13061 13063 13064     9 
13058 13061 13063 13065     9 
13062 13061 13063 13064     9 
13062 13061 13063 13065     9 
13061 13063 13065 13066     9 
13061 13063 13065 13067     9 
13061 13063 13065 13068     9 
13064 13063 13065 13066     9 
13064 13063 13065 13067     9 
13064 13063 13065 13068     9 
13063 13065 13068 13069     9 
13063 13065 13068 13070     9 
13063 13065 13068 13071     9 
13066 13065 13068 13069     9 
13066 13065 13068 13070     9 
13066 13065 13068 13071     9 
13067 13065 13068 13069     9 
13067 13065 13068 13070     9 
13067 13065 13068 13071     9 
13065 13068 13071 13072     9 
13065 13068 13071 13073     9 
13065 13068 13071 13074     9 
13069 13068 13071 13072     9 
13069 13068 13071 13073     9 
13069 13068 13071 13074     9 
13070 13068 13071 13072     9 
13070 13068 13071 13073     9 
13070 13068 13071 13074     9 
13068 13071 13074 13075     9 
13068 13071 13074 13076     9 
13068 13071 13074 13077     9 
13072 13071 13074 13075     9 
13072 13071 13074 13076     9 
13072 13071 13074 13077     9 
13073 13071 13074 13075     9 
13073 13071 13074 13076     9 
13073 13071 13074 13077     9 
13071 13074 13077 13078     9 
13071 13074 13077 13079     9 
13071 13074 13077 13080     9 
13075 13074 13077 13078     9 
13075 13074 13077 13079     9 
13075 13074 13077 13080     9 
13076 13074 13077 13078     9 
13076 13074 13077 13079     9 
13076 13074 13077 13080     9 
13074 13077 13080 13081     9 
13074 13077 13080 13082     9 
13074 13077 13080 13083     9 
13078 13077 13080 13081     9 
13078 13077 13080 13082     9 
13078 13077 13080 13083     9 
13079 13077 13080 13081     9 
13079 13077 13080 13082     9 
13079 13077 13080 13083     9 
13077 13080 13083 13084     9 
13077 13080 13083 13085     9 
13077 13080 13083 13086     9 
13081 13080 13083 13084     9 
13081 13080 13083 13085     9 
13081 13080 13083 13086     9 
13082 13080 13083 13084     9 
13082 13080 13083 13085     9 
13082 13080 13083 13086     9 
13080 13083 13086 13087     9 
13080 13083 13086 13088     9 
13080 13083 13086 13089     9 
13084 13083 13086 13087     9 
13084 13083 13086 13088     9 
13084 13083 13086 13089     9 
13085 13083 13086 13087     9 
13085 13083 13086 13088     9 
13085 13083 13086 13089     9 
13040 13090 13093 13094     9 
13040 13090 13093 13095     9 
13040 13090 13093 13096     9 
13091 13090 13093 13094     9 
13091 13090 13093 13095     9 
13091 13090 13093 13096     9 
13092 13090 13093 13094     9 
13092 13090 13093 13095     9 
13092 13090 13093 13096     9 
13090 13093 13096 13097     9 
13090 13093 13096 13098     9 
13090 13093 13096 13099     9 
13094 13093 13096 13097     9 
13094 13093 13096 13098     9 
13094 13093 13096 13099     9 
13095 13093 13096 13097     9 
13095 13093 13096 13098     9 
13095 13093 13096 13099     9 
13093 13096 13099 13100     9 
13093 13096 13099 13101     9 
13093 13096 13099 13102     9 
13097 13096 13099 13100     9 
13097 13096 13099 13101     9 
13097 13096 13099 13102     9 
13098 13096 13099 13100     9 
13098 13096 13099 13101     9 
13098 13096 13099 13102     9 
13096 13099 13102 13103     9 
13096 13099 13102 13104     9 
13096 13099 13102 13105     9 
13100 13099 13102 13103     9 
13100 13099 13102 13104     9 
13100 13099 13102 13105     9 
13101 13099 13102 13103     9 
13101 13099 13102 13104     9 
13101 13099 13102 13105     9 
13099 13102 13105 13106     9 
13099 13102 13105 13107     9 
13099 13102 13105 13108     9 
13103 13102 13105 13106     9 
13103 13102 13105 13107     9 
13103 13102 13105 13108     9 
13104 13102 13105 13106     9 
13104 13102 13105 13107     9 
13104 13102 13105 13108     9 
13102 13105 13108 13109     9 
13102 13105 13108 13110     9 
13102 13105 13108 13111     9 
13106 13105 13108 13109     9 
13106 13105 13108 13110     9 
13106 13105 13108 13111     9 
13107 13105 13108 13109     9 
13107 13105 13108 13110     9 
13107 13105 13108 13111     9 
13105 13108 13111 13112     9 
13105 13108 13111 13113     9 
13105 13108 13111 13114     9 
13109 13108 13111 13112     9 
13109 13108 13111 13113     9 
13109 13108 13111 13114     9 
13110 13108 13111 13112     9 
13110 13108 13111 13113     9 
13110 13108 13111 13114     9 
13108 13111 13114 13115     9 
13108 13111 13114 13116     9 
13108 13111 13114 13117     9 
13112 13111 13114 13115     9 
13112 13111 13114 13116     9 
13112 13111 13114 13117     9 
13113 13111 13114 13115     9 
13113 13111 13114 13116     9 
13113 13111 13114 13117     9 
13111 13114 13117 13118     9 
13111 13114 13117 13119     9 
13111 13114 13117 13120     9 
13115 13114 13117 13118     9 
13115 13114 13117 13119     9 
13115 13114 13117 13120     9 
13116 13114 13117 13118     9 
13116 13114 13117 13119     9 
13116 13114 13117 13120     9 
13114 13117 13120 13121     9 
13114 13117 13120 13122     9 
13114 13117 13120 13123     9 
13118 13117 13120 13121     9 
13118 13117 13120 13122     9 
13118 13117 13120 13123     9 
13119 13117 13120 13121     9 
13119 13117 13120 13122     9 
13119 13117 13120 13123     9 
13117 13120 13123 13124     9 
13117 13120 13123 13125     9 
13117 13120 13123 13126     9 
13121 13120 13123 13124     9 
13121 13120 13123 13125     9 
13121 13120 13123 13126     9 
13122 13120 13123 13124     9 
13122 13120 13123 13125     9 
13122 13120 13123 13126     9 
13120 13123 13126 13127     9 
13120 13123 13126 13128     9 
13120 13123 13126 13129     9 
13124 13123 13126 13127     9 
13124 13123 13126 13128     9 
13124 13123 13126 13129     9 
13125 13123 13126 13127     9 
13125 13123 13126 13128     9 
13125 13123 13126 13129     9 
13123 13126 13129 13130     9 
13123 13126 13129 13131     9 
13123 13126 13129 13132     9 
13127 13126 13129 13130     9 
13127 13126 13129 13131     9 
13127 13126 13129 13132     9 
13128 13126 13129 13130     9 
13128 13126 13129 13131     9 
13128 13126 13129 13132     9 
13137 13133 13134 13135     9 
13137 13133 13134 13136     9 
13137 13133 13134 13149     9 
13141 13133 13134 13135     9 
13141 13133 13134 13136     9 
13141 13133 13134 13149     9 
13145 13133 13134 13135     9 
13145 13133 13134 13136     9 
13145 13133 13134 13149     9 
13134 13133 13137 13138     9 
13134 13133 13137 13139     9 
13134 13133 13137 13140     9 
13141 13133 13137 13138     9 
13141 13133 13137 13139     9 
13141 13133 13137 13140     9 
13145 13133 13137 13138     9 
13145 13133 13137 13139     9 
13145 13133 13137 13140     9 
13134 13133 13141 13142     9 
13134 13133 13141 13143     9 
13134 13133 13141 13144     9 
13137 13133 13141 13142     9 
13137 13133 13141 13143     9 
13137 13133 13141 13144     9 
13145 13133 13141 13142     9 
13145 13133 13141 13143     9 
13145 13133 13141 13144     9 
13134 13133 13145 13146     9 
13134 13133 13145 13147     9 
13134 13133 13145 13148     9 
13137 13133 13145 13146     9 
13137 13133 13145 13147     9 
13137 13133 13145 13148     9 
13141 13133 13145 13146     9 
13141 13133 13145 13147     9 
13141 13133 13145 13148     9 
13133 13134 13149 13150     9 
13133 13134 13149 13151     9 
13133 13134 13149 13155     9 
13135 13134 13149 13150     9 
13135 13134 13149 13151     9 
13135 13134 13149 13155     9 
13136 13134 13149 13150     9 
13136 13134 13149 13151     9 
13136 13134 13149 13155     9 
13134 13149 13155 13152     9 
13150 13149 13155 13152     9 
13151 13149 13155 13152     9 
13153 13152 13155 13149     9 
13154 13152 13155 13149     9 
13156 13152 13155 13149     9 
13153 13152 13156 13157     9 
13154 13152 13156 13157     9 
13155 13152 13156 13157     9 
13152 13156 13157 13158     9 
13152 13156 13157 13159     9 
13152 13156 13157 13160     9 
13156 13157 13160 13161     9 
13156 13157 13160 13162     9 
13156 13157 13160 13168     9 
13158 13157 13160 13161     9 
13158 13157 13160 13162     9 
13158 13157 13160 13168     9 
13159 13157 13160 13161     9 
13159 13157 13160 13162     9 
13159 13157 13160 13168     9 
13157 13160 13162 13163     9 
13161 13160 13162 13163     9 
13168 13160 13162 13163     9 
13157 13160 13168 13169     9 
13157 13160 13168 13170     9 
13157 13160 13168 13171     9 
13161 13160 13168 13169     9 
13161 13160 13168 13170     9 
13161 13160 13168 13171     9 
13162 13160 13168 13169     9 
13162 13160 13168 13170     9 
13162 13160 13168 13171     9 
13160 13162 13163 13164     9 
13160 13162 13163 13165     9 
13162 13163 13165 13166     9 
13162 13163 13165 13167     9 
13162 13163 13165 13177     9 
13164 13163 13165 13166     9 
13164 13163 13165 13167     9 
13164 13163 13165 13177     9 
13163 13165 13177 13178     9 
13163 13165 13177 13179     9 
13163 13165 13177 13180     9 
13166 13165 13177 13178     9 
13166 13165 13177 13179     9 
13166 13165 13177 13180     9 
13167 13165 13177 13178     9 
13167 13165 13177 13179     9 
13167 13165 13177 13180     9 
13160 13168 13171 13172     9 
13169 13168 13171 13172     9 
13170 13168 13171 13172     9 
13168 13171 13172 13173     9 
13168 13171 13172 13174     9 
13171 13172 13174 13175     9 
13171 13172 13174 13176     9 
13171 13172 13174 13224     9 
13173 13172 13174 13175     9 
13173 13172 13174 13176     9 
13173 13172 13174 13224     9 
13172 13174 13224 13225     9 
13172 13174 13224 13226     9 
13172 13174 13224 13227     9 
13175 13174 13224 13225     9 
13175 13174 13224 13226     9 
13175 13174 13224 13227     9 
13176 13174 13224 13225     9 
13176 13174 13224 13226     9 
13176 13174 13224 13227     9 
13165 13177 13180 13181     9 
13165 13177 13180 13182     9 
13165 13177 13180 13183     9 
13178 13177 13180 13181     9 
13178 13177 13180 13182     9 
13178 13177 13180 13183     9 
13179 13177 13180 13181     9 
13179 13177 13180 13182     9 
13179 13177 13180 13183     9 
13177 13180 13183 13184     9 
13177 13180 13183 13185     9 
13177 13180 13183 13186     9 
13181 13180 13183 13184     9 
13181 13180 13183 13185     9 
13181 13180 13183 13186     9 
13182 13180 13183 13184     9 
13182 13180 13183 13185     9 
13182 13180 13183 13186     9 
13180 13183 13186 13187     9 
13180 13183 13186 13188     9 
13180 13183 13186 13189     9 
13184 13183 13186 13187     9 
13184 13183 13186 13188     9 
13184 13183 13186 13189     9 
13185 13183 13186 13187     9 
13185 13183 13186 13188     9 
13185 13183 13186 13189     9 
13183 13186 13189 13190     9 
13183 13186 13189 13191     9 
13183 13186 13189 13192     9 
13187 13186 13189 13190     9 
13187 13186 13189 13191     9 
13187 13186 13189 13192     9 
13188 13186 13189 13190     9 
13188 13186 13189 13191     9 
13188 13186 13189 13192     9 
13186 13189 13192 13193     9 
13186 13189 13192 13194     9 
13186 13189 13192 13195     9 
13190 13189 13192 13193     9 
13190 13189 13192 13194     9 
13190 13189 13192 13195     9 
13191 13189 13192 13193     9 
13191 13189 13192 13194     9 
13191 13189 13192 13195     9 
13189 13192 13195 13196     9 
13189 13192 13195 13197     9 
13193 13192 13195 13196     9 
13193 13192 13195 13197     9 
13194 13192 13195 13196     9 
13194 13192 13195 13197     9 
13192 13195 13197 13198     9 
13192 13195 13197 13199     9 
13196 13195 13197 13198     9 
13196 13195 13197 13199     9 
13195 13197 13199 13200     9 
13195 13197 13199 13201     9 
13195 13197 13199 13202     9 
13198 13197 13199 13200     9 
13198 13197 13199 13201     9 
13198 13197 13199 13202     9 
13197 13199 13202 13203     9 
13197 13199 13202 13204     9 
13197 13199 13202 13205     9 
13200 13199 13202 13203     9 
13200 13199 13202 13204     9 
13200 13199 13202 13205     9 
13201 13199 13202 13203     9 
13201 13199 13202 13204     9 
13201 13199 13202 13205     9 
13199 13202 13205 13206     9 
13199 13202 13205 13207     9 
13199 13202 13205 13208     9 
13203 13202 13205 13206     9 
13203 13202 13205 13207     9 
13203 13202 13205 13208     9 
13204 13202 13205 13206     9 
13204 13202 13205 13207     9 
13204 13202 13205 13208     9 
13202 13205 13208 13209     9 
13202 13205 13208 13210     9 
13202 13205 13208 13211     9 
13206 13205 13208 13209     9 
13206 13205 13208 13210     9 
13206 13205 13208 13211     9 
13207 13205 13208 13209     9 
13207 13205 13208 13210     9 
13207 13205 13208 13211     9 
13205 13208 13211 13212     9 
13205 13208 13211 13213     9 
13205 13208 13211 13214     9 
13209 13208 13211 13212     9 
13209 13208 13211 13213     9 
13209 13208 13211 13214     9 
13210 13208 13211 13212     9 
13210 13208 13211 13213     9 
13210 13208 13211 13214     9 
13208 13211 13214 13215     9 
13208 13211 13214 13216     9 
13208 13211 13214 13217     9 
13212 13211 13214 13215     9 
13212 13211 13214 13216     9 
13212 13211 13214 13217     9 
13213 13211 13214 13215     9 
13213 13211 13214 13216     9 
13213 13211 13214 13217     9 
13211 13214 13217 13218     9 
13211 13214 13217 13219     9 
13211 13214 13217 13220     9 
13215 13214 13217 13218     9 
13215 13214 13217 13219     9 
13215 13214 13217 13220     9 
13216 13214 13217 13218     9 
13216 13214 13217 13219     9 
13216 13214 13217 13220     9 
13214 13217 13220 13221     9 
13214 13217 13220 13222     9 
13214 13217 13220 13223     9 
13218 13217 13220 13221     9 
13218 13217 13220 13222     9 
13218 13217 13220 13223     9 
13219 13217 13220 13221     9 
13219 13217 13220 13222     9 
13219 13217 13220 13223     9 
13174 13224 13227 13228     9 
13174 13224 13227 13229     9 
13174 13224 13227 13230     9 
13225 13224 13227 13228     9 
13225 13224 13227 13229     9 
13225 13224 13227 13230     9 
13226 13224 13227 13228     9 
13226 13224 13227 13229     9 
13226 13224 13227 13230     9 
13224 13227 13230 13231     9 
13224 13227 13230 13232     9 
13224 13227 13230 13233     9 
13228 13227 13230 13231     9 
13228 13227 13230 13232     9 
13228 13227 13230 13233     9 
13229 13227 13230 13231     9 
13229 13227 13230 13232     9 
13229 13227 13230 13233     9 
13227 13230 13233 13234     9 
13227 13230 13233 13235     9 
13227 13230 13233 13236     9 
13231 13230 13233 13234     9 
13231 13230 13233 13235     9 
13231 13230 13233 13236     9 
13232 13230 13233 13234     9 
13232 13230 13233 13235     9 
13232 13230 13233 13236     9 
13230 13233 13236 13237     9 
13230 13233 13236 13238     9 
13230 13233 13236 13239     9 
13234 13233 13236 13237     9 
13234 13233 13236 13238     9 
13234 13233 13236 13239     9 
13235 13233 13236 13237     9 
13235 13233 13236 13238     9 
13235 13233 13236 13239     9 
13233 13236 13239 13240     9 
13233 13236 13239 13241     9 
13233 13236 13239 13242     9 
13237 13236 13239 13240     9 
13237 13236 13239 13241     9 
13237 13236 13239 13242     9 
13238 13236 13239 13240     9 
13238 13236 13239 13241     9 
13238 13236 13239 13242     9 
13236 13239 13242 13243     9 
13236 13239 13242 13244     9 
13236 13239 13242 13245     9 
13240 13239 13242 13243     9 
13240 13239 13242 13244     9 
13240 13239 13242 13245     9 
13241 13239 13242 13243     9 
13241 13239 13242 13244     9 
13241 13239 13242 13245     9 
13239 13242 13245 13246     9 
13239 13242 13245 13247     9 
13239 13242 13245 13248     9 
13243 13242 13245 13246     9 
13243 13242 13245 13247     9 
13243 13242 13245 13248     9 
13244 13242 13245 13246     9 
13244 13242 13245 13247     9 
13244 13242 13245 13248     9 
13242 13245 13248 13249     9 
13242 13245 13248 13250     9 
13242 13245 13248 13251     9 
13246 13245 13248 13249     9 
13246 13245 13248 13250     9 
13246 13245 13248 13251     9 
13247 13245 13248 13249     9 
13247 13245 13248 13250     9 
13247 13245 13248 13251     9 
13245 13248 13251 13252     9 
13245 13248 13251 13253     9 
13245 13248 13251 13254     9 
13249 13248 13251 13252     9 
13249 13248 13251 13253     9 
13249 13248 13251 13254     9 
13250 13248 13251 13252     9 
13250 13248 13251 13253     9 
13250 13248 13251 13254     9 
13248 13251 13254 13255     9 
13248 13251 13254 13256     9 
13248 13251 13254 13257     9 
13252 13251 13254 13255     9 
13252 13251 13254 13256     9 
13252 13251 13254 13257     9 
13253 13251 13254 13255     9 
13253 13251 13254 13256     9 
13253 13251 13254 13257     9 
13251 13254 13257 13258     9 
13251 13254 13257 13259     9 
13251 13254 13257 13260     9 
13255 13254 13257 13258     9 
13255 13254 13257 13259     9 
13255 13254 13257 13260     9 
13256 13254 13257 13258     9 
13256 13254 13257 13259     9 
13256 13254 13257 13260     9 
13254 13257 13260 13261     9 
13254 13257 13260 13262     9 
13254 13257 13260 13263     9 
13258 13257 13260 13261     9 
13258 13257 13260 13262     9 
13258 13257 13260 13263     9 
13259 13257 13260 13261     9 
13259 13257 13260 13262     9 
13259 13257 13260 13263     9 
13257 13260 13263 13264     9 
13257 13260 13263 13265     9 
13257 13260 13263 13266     9 
13261 13260 13263 13264     9 
13261 13260 13263 13265     9 
13261 13260 13263 13266     9 
13262 13260 13263 13264     9 
13262 13260 13263 13265     9 
13262 13260 13263 13266     9 
13271 13267 13268 13269     9 
13271 13267 13268 13270     9 
13271 13267 13268 13283     9 
13275 13267 13268 13269     9 
13275 13267 13268 13270     9 
13275 13267 13268 13283     9 
13279 13267 13268 13269     9 
13279 13267 13268 13270     9 
13279 13267 13268 13283     9 
13268 13267 13271 13272     9 
13268 13267 13271 13273     9 
13268 13267 13271 13274     9 
13275 13267 13271 13272     9 
13275 13267 13271 13273     9 
13275 13267 13271 13274     9 
13279 13267 13271 13272     9 
13279 13267 13271 13273     9 
13279 13267 13271 13274     9 
13268 13267 13275 13276     9 
13268 13267 13275 13277     9 
13268 13267 13275 13278     9 
13271 13267 13275 13276     9 
13271 13267 13275 13277     9 
13271 13267 13275 13278     9 
13279 13267 13275 13276     9 
13279 13267 13275 13277     9 
13279 13267 13275 13278     9 
13268 13267 13279 13280     9 
13268 13267 13279 13281     9 
13268 13267 13279 13282     9 
13271 13267 13279 13280     9 
13271 13267 13279 13281     9 
13271 13267 13279 13282     9 
13275 13267 13279 13280     9 
13275 13267 13279 13281     9 
13275 13267 13279 13282     9 
13267 13268 13283 13284     9 
13267 13268 13283 13285     9 
13267 13268 13283 13289     9 
13269 13268 13283 13284     9 
13269 13268 13283 13285     9 
13269 13268 13283 13289     9 
13270 13268 13283 13284     9 
13270 13268 13283 13285     9 
13270 13268 13283 13289     9 
13268 13283 13289 13286     9 
13284 13283 13289 13286     9 
13285 13283 13289 13286     9 
13287 13286 13289 13283     9 
13288 13286 13289 13283     9 
13290 13286 13289 13283     9 
13287 13286 13290 13291     9 
13288 13286 13290 13291     9 
13289 13286 13290 13291     9 
13286 13290 13291 13292     9 
13286 13290 13291 13293     9 
13286 13290 13291 13294     9 
13290 13291 13294 13295     9 
13290 13291 13294 13296     9 
13290 13291 13294 13302     9 
13292 13291 13294 13295     9 
13292 13291 13294 13296     9 
13292 13291 13294 13302     9 
13293 13291 13294 13295     9 
13293 13291 13294 13296     9 
13293 13291 13294 13302     9 
13291 13294 13296 13297     9 
13295 13294 13296 13297     9 
13302 13294 13296 13297     9 
13291 13294 13302 13303     9 
13291 13294 13302 13304     9 
13291 13294 13302 13305     9 
13295 13294 13302 13303     9 
13295 13294 13302 13304     9 
13295 13294 13302 13305     9 
13296 13294 13302 13303     9 
13296 13294 13302 13304     9 
13296 13294 13302 13305     9 
13294 13296 13297 13298     9 
13294 13296 13297 13299     9 
13296 13297 13299 13300     9 
13296 13297 13299 13301     9 
13296 13297 13299 13311     9 
13298 13297 13299 13300     9 
13298 13297 13299 13301     9 
13298 13297 13299 13311     9 
13297 13299 13311 13312     9 
13297 13299 13311 13313     9 
13297 13299 13311 13314     9 
13300 13299 13311 13312     9 
13300 13299 13311 13313     9 
13300 13299 13311 13314     9 
13301 13299 13311 13312     9 
13301 13299 13311 13313     9 
13301 13299 13311 13314     9 
13294 13302 13305 13306     9 
13303 13302 13305 13306     9 
13304 13302 13305 13306     9 
13302 13305 13306 13307     9 
13302 13305 13306 13308     9 
13305 13306 13308 13309     9 
13305 13306 13308 13310     9 
13305 13306 13308 13358     9 
13307 13306 13308 13309     9 
13307 13306 13308 13310     9 
13307 13306 13308 13358     9 
13306 13308 13358 13359     9 
13306 13308 13358 13360     9 
13306 13308 13358 13361     9 
13309 13308 13358 13359     9 
13309 13308 13358 13360     9 
13309 13308 13358 13361     9 
13310 13308 13358 13359     9 
13310 13308 13358 13360     9 
13310 13308 13358 13361     9 
13299 13311 13314 13315     9 
13299 13311 13314 13316     9 
13299 13311 13314 13317     9 
13312 13311 13314 13315     9 
13312 13311 13314 13316     9 
13312 13311 13314 13317     9 
13313 13311 13314 13315     9 
13313 13311 13314 13316     9 
13313 13311 13314 13317     9 
13311 13314 13317 13318     9 
13311 13314 13317 13319     9 
13311 13314 13317 13320     9 
13315 13314 13317 13318     9 
13315 13314 13317 13319     9 
13315 13314 13317 13320     9 
13316 13314 13317 13318     9 
13316 13314 13317 13319     9 
13316 13314 13317 13320     9 
13314 13317 13320 13321     9 
13314 13317 13320 13322     9 
13314 13317 13320 13323     9 
13318 13317 13320 13321     9 
13318 13317 13320 13322     9 
13318 13317 13320 13323     9 
13319 13317 13320 13321     9 
13319 13317 13320 13322     9 
13319 13317 13320 13323     9 
13317 13320 13323 13324     9 
13317 13320 13323 13325     9 
13317 13320 13323 13326     9 
13321 13320 13323 13324     9 
13321 13320 13323 13325     9 
13321 13320 13323 13326     9 
13322 13320 13323 13324     9 
13322 13320 13323 13325     9 
13322 13320 13323 13326     9 
13320 13323 13326 13327     9 
13320 13323 13326 13328     9 
13320 13323 13326 13329     9 
13324 13323 13326 13327     9 
13324 13323 13326 13328     9 
13324 13323 13326 13329     9 
13325 13323 13326 13327     9 
13325 13323 13326 13328     9 
13325 13323 13326 13329     9 
13323 13326 13329 13330     9 
13323 13326 13329 13331     9 
13327 13326 13329 13330     9 
13327 13326 13329 13331     9 
13328 13326 13329 13330     9 
13328 13326 13329 13331     9 
13326 13329 13331 13332     9 
13326 13329 13331 13333     9 
13330 13329 13331 13332     9 
13330 13329 13331 13333     9 
13329 13331 13333 13334     9 
13329 13331 13333 13335     9 
13329 13331 13333 13336     9 
13332 13331 13333 13334     9 
13332 13331 13333 13335     9 
13332 13331 13333 13336     9 
13331 13333 13336 13337     9 
13331 13333 13336 13338     9 
13331 13333 13336 13339     9 
13334 13333 13336 13337     9 
13334 13333 13336 13338     9 
13334 13333 13336 13339     9 
13335 13333 13336 13337     9 
13335 13333 13336 13338     9 
13335 13333 13336 13339     9 
13333 13336 13339 13340     9 
13333 13336 13339 13341     9 
13333 13336 13339 13342     9 
13337 13336 13339 13340     9 
13337 13336 13339 13341     9 
13337 13336 13339 13342     9 
13338 13336 13339 13340     9 
13338 13336 13339 13341     9 
13338 13336 13339 13342     9 
13336 13339 13342 13343     9 
13336 13339 13342 13344     9 
13336 13339 13342 13345     9 
13340 13339 13342 13343     9 
13340 13339 13342 13344     9 
13340 13339 13342 13345     9 
13341 13339 13342 13343     9 
13341 13339 13342 13344     9 
13341 13339 13342 13345     9 
13339 13342 13345 13346     9 
13339 13342 13345 13347     9 
13339 13342 13345 13348     9 
13343 13342 13345 13346     9 
13343 13342 13345 13347     9 
13343 13342 13345 13348     9 
13344 13342 13345 13346     9 
13344 13342 13345 13347     9 
13344 13342 13345 13348     9 
13342 13345 13348 13349     9 
13342 13345 13348 13350     9 
13342 13345 13348 13351     9 
13346 13345 13348 13349     9 
13346 13345 13348 13350     9 
13346 13345 13348 13351     9 
13347 13345 13348 13349     9 
13347 13345 13348 13350     9 
13347 13345 13348 13351     9 
13345 13348 13351 13352     9 
13345 13348 13351 13353     9 
13345 13348 13351 13354     9 
13349 13348 13351 13352     9 
13349 13348 13351 13353     9 
13349 13348 13351 13354     9 
13350 13348 13351 13352     9 
13350 13348 13351 13353     9 
13350 13348 13351 13354     9 
13348 13351 13354 13355     9 
13348 13351 13354 13356     9 
13348 13351 13354 13357     9 
13352 13351 13354 13355     9 
13352 13351 13354 13356     9 
13352 13351 13354 13357     9 
13353 13351 13354 13355     9 
13353 13351 13354 13356     9 
13353 13351 13354 13357     9 
13308 13358 13361 13362     9 
13308 13358 13361 13363     9 
13308 13358 13361 13364     9 
13359 13358 13361 13362     9 
13359 13358 13361 13363     9 
13359 13358 13361 13364     9 
13360 13358 13361 13362     9 
13360 13358 13361 13363     9 
13360 13358 13361 13364     9 
13358 13361 13364 13365     9 
13358 13361 13364 13366     9 
13358 13361 13364 13367     9 
13362 13361 13364 13365     9 
13362 13361 13364 13366     9 
13362 13361 13364 13367     9 
13363 13361 13364 13365     9 
13363 13361 13364 13366     9 
13363 13361 13364 13367     9 
13361 13364 13367 13368     9 
13361 13364 13367 13369     9 
13361 13364 13367 13370     9 
13365 13364 13367 13368     9 
13365 13364 13367 13369     9 
13365 13364 13367 13370     9 
13366 13364 13367 13368     9 
13366 13364 13367 13369     9 
13366 13364 13367 13370     9 
13364 13367 13370 13371     9 
13364 13367 13370 13372     9 
13364 13367 13370 13373     9 
13368 13367 13370 13371     9 
13368 13367 13370 13372     9 
13368 13367 13370 13373     9 
13369 13367 13370 13371     9 
13369 13367 13370 13372     9 
13369 13367 13370 13373     9 
13367 13370 13373 13374     9 
13367 13370 13373 13375     9 
13367 13370 13373 13376     9 
13371 13370 13373 13374     9 
13371 13370 13373 13375     9 
13371 13370 13373 13376     9 
13372 13370 13373 13374     9 
13372 13370 13373 13375     9 
13372 13370 13373 13376     9 
13370 13373 13376 13377     9 
13370 13373 13376 13378     9 
13370 13373 13376 13379     9 
13374 13373 13376 13377     9 
13374 13373 13376 13378     9 
13374 13373 13376 13379     9 
13375 13373 13376 13377     9 
13375 13373 13376 13378     9 
13375 13373 13376 13379     9 
13373 13376 13379 13380     9 
13373 13376 13379 13381     9 
13373 13376 13379 13382     9 
13377 13376 13379 13380     9 
13377 13376 13379 13381     9 
13377 13376 13379 13382     9 
13378 13376 13379 13380     9 
13378 13376 13379 13381     9 
13378 13376 13379 13382     9 
13376 13379 13382 13383     9 
13376 13379 13382 13384     9 
13376 13379 13382 13385     9 
13380 13379 13382 13383     9 
13380 13379 13382 13384     9 
13380 13379 13382 13385     9 
13381 13379 13382 13383     9 
13381 13379 13382 13384     9 
13381 13379 13382 13385     9 
13379 13382 13385 13386     9 
13379 13382 13385 13387     9 
13379 13382 13385 13388     9 
13383 13382 13385 13386     9 
13383 13382 13385 13387     9 
13383 13382 13385 13388     9 
13384 13382 13385 13386     9 
13384 13382 13385 13387     9 
13384 13382 13385 13388     9 
13382 13385 13388 13389     9 
13382 13385 13388 13390     9 
13382 13385 13388 13391     9 
13386 13385 13388 13389     9 
13386 13385 13388 13390     9 
13386 13385 13388 13391     9 
13387 13385 13388 13389     9 
13387 13385 13388 13390     9 
13387 13385 13388 13391     9 
13385 13388 13391 13392     9 
13385 13388 13391 13393     9 
13385 13388 13391 13394     9 
13389 13388 13391 13392     9 
13389 13388 13391 13393     9 
13389 13388 13391 13394     9 
13390 13388 13391 13392     9 
13390 13388 13391 13393     9 
13390 13388 13391 13394     9 
13388 13391 13394 13395     9 
13388 13391 13394 13396     9 
13388 13391 13394 13397     9 
13392 13391 13394 13395     9 
13392 13391 13394 13396     9 
13392 13391 13394 13397     9 
13393 13391 13394 13395     9 
13393 13391 13394 13396     9 
13393 13391 13394 13397     9 
13391 13394 13397 13398     9 
13391 13394 13397 13399     9 
13391 13394 13397 13400     9 
13395 13394 13397 13398     9 
13395 13394 13397 13399     9 
13395 13394 13397 13400     9 
13396 13394 13397 13398     9 
13396 13394 13397 13399     9 
13396 13394 13397 13400     9 
13405 13401 13402 13403     9 
13405 13401 13402 13404     9 
13405 13401 13402 13417     9 
13409 13401 13402 13403     9 
13409 13401 13402 13404     9 
13409 13401 13402 13417     9 
13413 13401 13402 13403     9 
13413 13401 13402 13404     9 
13413 13401 13402 13417     9 
13402 13401 13405 13406     9 
13402 13401 13405 13407     9 
13402 13401 13405 13408     9 
13409 13401 13405 13406     9 
13409 13401 13405 13407     9 
13409 13401 13405 13408     9 
13413 13401 13405 13406     9 
13413 13401 13405 13407     9 
13413 13401 13405 13408     9 
13402 13401 13409 13410     9 
13402 13401 13409 13411     9 
13402 13401 13409 13412     9 
13405 13401 13409 13410     9 
13405 13401 13409 13411     9 
13405 13401 13409 13412     9 
13413 13401 13409 13410     9 
13413 13401 13409 13411     9 
13413 13401 13409 13412     9 
13402 13401 13413 13414     9 
13402 13401 13413 13415     9 
13402 13401 13413 13416     9 
13405 13401 13413 13414     9 
13405 13401 13413 13415     9 
13405 13401 13413 13416     9 
13409 13401 13413 13414     9 
13409 13401 13413 13415     9 
13409 13401 13413 13416     9 
13401 13402 13417 13418     9 
13401 13402 13417 13419     9 
13401 13402 13417 13423     9 
13403 13402 13417 13418     9 
13403 13402 13417 13419     9 
13403 13402 13417 13423     9 
13404 13402 13417 13418     9 
13404 13402 13417 13419     9 
13404 13402 13417 13423     9 
13402 13417 13423 13420     9 
13418 13417 13423 13420     9 
13419 13417 13423 13420     9 
13421 13420 13423 13417     9 
13422 13420 13423 13417     9 
13424 13420 13423 13417     9 
13421 13420 13424 13425     9 
13422 13420 13424 13425     9 
13423 13420 13424 13425     9 
13420 13424 13425 13426     9 
13420 13424 13425 13427     9 
13420 13424 13425 13428     9 
13424 13425 13428 13429     9 
13424 13425 13428 13430     9 
13424 13425 13428 13436     9 
13426 13425 13428 13429     9 
13426 13425 13428 13430     9 
13426 13425 13428 13436     9 
13427 13425 13428 13429     9 
13427 13425 13428 13430     9 
13427 13425 13428 13436     9 
13425 13428 13430 13431     9 
13429 13428 13430 13431     9 
13436 13428 13430 13431     9 
13425 13428 13436 13437     9 
13425 13428 13436 13438     9 
13425 13428 13436 13439     9 
13429 13428 13436 13437     9 
13429 13428 13436 13438     9 
13429 13428 13436 13439     9 
13430 13428 13436 13437     9 
13430 13428 13436 13438     9 
13430 13428 13436 13439     9 
13428 13430 13431 13432     9 
13428 13430 13431 13433     9 
13430 13431 13433 13434     9 
13430 13431 13433 13435     9 
13430 13431 13433 13445     9 
13432 13431 13433 13434     9 
13432 13431 13433 13435     9 
13432 13431 13433 13445     9 
13431 13433 13445 13446     9 
13431 13433 13445 13447     9 
13431 13433 13445 13448     9 
13434 13433 13445 13446     9 
13434 13433 13445 13447     9 
13434 13433 13445 13448     9 
13435 13433 13445 13446     9 
13435 13433 13445 13447     9 
13435 13433 13445 13448     9 
13428 13436 13439 13440     9 
13437 13436 13439 13440     9 
13438 13436 13439 13440     9 
13436 13439 13440 13441     9 
13436 13439 13440 13442     9 
13439 13440 13442 13443     9 
13439 13440 13442 13444     9 
13439 13440 13442 13492     9 
13441 13440 13442 13443     9 
13441 13440 13442 13444     9 
13441 13440 13442 13492     9 
13440 13442 13492 13493     9 
13440 13442 13492 13494     9 
13440 13442 13492 13495     9 
13443 13442 13492 13493     9 
13443 13442 13492 13494     9 
13443 13442 13492 13495     9 
13444 13442 13492 13493     9 
13444 13442 13492 13494     9 
13444 13442 13492 13495     9 
13433 13445 13448 13449     9 
13433 13445 13448 13450     9 
13433 13445 13448 13451     9 
13446 13445 13448 13449     9 
13446 13445 13448 13450     9 
13446 13445 13448 13451     9 
13447 13445 13448 13449     9 
13447 13445 13448 13450     9 
13447 13445 13448 13451     9 
13445 13448 13451 13452     9 
13445 13448 13451 13453     9 
13445 13448 13451 13454     9 
13449 13448 13451 13452     9 
13449 13448 13451 13453     9 
13449 13448 13451 13454     9 
13450 13448 13451 13452     9 
13450 13448 13451 13453     9 
13450 13448 13451 13454     9 
13448 13451 13454 13455     9 
13448 13451 13454 13456     9 
13448 13451 13454 13457     9 
13452 13451 13454 13455     9 
13452 13451 13454 13456     9 
13452 13451 13454 13457     9 
13453 13451 13454 13455     9 
13453 13451 13454 13456     9 
13453 13451 13454 13457     9 
13451 13454 13457 13458     9 
13451 13454 13457 13459     9 
13451 13454 13457 13460     9 
13455 13454 13457 13458     9 
13455 13454 13457 13459     9 
13455 13454 13457 13460     9 
13456 13454 13457 13458     9 
13456 13454 13457 13459     9 
13456 13454 13457 13460     9 
13454 13457 13460 13461     9 
13454 13457 13460 13462     9 
13454 13457 13460 13463     9 
13458 13457 13460 13461     9 
13458 13457 13460 13462     9 
13458 13457 13460 13463     9 
13459 13457 13460 13461     9 
13459 13457 13460 13462     9 
13459 13457 13460 13463     9 
13457 13460 13463 13464     9 
13457 13460 13463 13465     9 
13461 13460 13463 13464     9 
13461 13460 13463 13465     9 
13462 13460 13463 13464     9 
13462 13460 13463 13465     9 
13460 13463 13465 13466     9 
13460 13463 13465 13467     9 
13464 13463 13465 13466     9 
13464 13463 13465 13467     9 
13463 13465 13467 13468     9 
13463 13465 13467 13469     9 
13463 13465 13467 13470     9 
13466 13465 13467 13468     9 
13466 13465 13467 13469     9 
13466 13465 13467 13470     9 
13465 13467 13470 13471     9 
13465 13467 13470 13472     9 
13465 13467 13470 13473     9 
13468 13467 13470 13471     9 
13468 13467 13470 13472     9 
13468 13467 13470 13473     9 
13469 13467 13470 13471     9 
13469 13467 13470 13472     9 
13469 13467 13470 13473     9 
13467 13470 13473 13474     9 
13467 13470 13473 13475     9 
13467 13470 13473 13476     9 
13471 13470 13473 13474     9 
13471 13470 13473 13475     9 
13471 13470 13473 13476     9 
13472 13470 13473 13474     9 
13472 13470 13473 13475     9 
13472 13470 13473 13476     9 
13470 13473 13476 13477     9 
13470 13473 13476 13478     9 
13470 13473 13476 13479     9 
13474 13473 13476 13477     9 
13474 13473 13476 13478     9 
13474 13473 13476 13479     9 
13475 13473 13476 13477     9 
13475 13473 13476 13478     9 
13475 13473 13476 13479     9 
13473 13476 13479 13480     9 
13473 13476 13479 13481     9 
13473 13476 13479 13482     9 
13477 13476 13479 13480     9 
13477 13476 13479 13481     9 
13477 13476 13479 13482     9 
13478 13476 13479 13480     9 
13478 13476 13479 13481     9 
13478 13476 13479 13482     9 
13476 13479 13482 13483     9 
13476 13479 13482 13484     9 
13476 13479 13482 13485     9 
13480 13479 13482 13483     9 
13480 13479 13482 13484     9 
13480 13479 13482 13485     9 
13481 13479 13482 13483     9 
13481 13479 13482 13484     9 
13481 13479 13482 13485     9 
13479 13482 13485 13486     9 
13479 13482 13485 13487     9 
13479 13482 13485 13488     9 
13483 13482 13485 13486     9 
13483 13482 13485 13487     9 
13483 13482 13485 13488     9 
13484 13482 13485 13486     9 
13484 13482 13485 13487     9 
13484 13482 13485 13488     9 
13482 13485 13488 13489     9 
13482 13485 13488 13490     9 
13482 13485 13488 13491     9 
13486 13485 13488 13489     9 
13486 13485 13488 13490     9 
13486 13485 13488 13491     9 
13487 13485 13488 13489     9 
13487 13485 13488 13490     9 
13487 13485 13488 13491     9 
13442 13492 13495 13496     9 
13442 13492 13495 13497     9 
13442 13492 13495 13498     9 
13493 13492 13495 13496     9 
13493 13492 13495 13497     9 
13493 13492 13495 13498     9 
13494 13492 13495 13496     9 
13494 13492 13495 13497     9 
13494 13492 13495 13498     9 
13492 13495 13498 13499     9 
13492 13495 13498 13500     9 
13492 13495 13498 13501     9 
13496 13495 13498 13499     9 
13496 13495 13498 13500     9 
13496 13495 13498 13501     9 
13497 13495 13498 13499     9 
13497 13495 13498 13500     9 
13497 13495 13498 13501     9 
13495 13498 13501 13502     9 
13495 13498 13501 13503     9 
13495 13498 13501 13504     9 
13499 13498 13501 13502     9 
13499 13498 13501 13503     9 
13499 13498 13501 13504     9 
13500 13498 13501 13502     9 
13500 13498 13501 13503     9 
13500 13498 13501 13504     9 
13498 13501 13504 13505     9 
13498 13501 13504 13506     9 
13498 13501 13504 13507     9 
13502 13501 13504 13505     9 
13502 13501 13504 13506     9 
13502 13501 13504 13507     9 
13503 13501 13504 13505     9 
13503 13501 13504 13506     9 
13503 13501 13504 13507     9 
13501 13504 13507 13508     9 
13501 13504 13507 13509     9 
13501 13504 13507 13510     9 
13505 13504 13507 13508     9 
13505 13504 13507 13509     9 
13505 13504 13507 13510     9 
13506 13504 13507 13508     9 
13506 13504 13507 13509     9 
13506 13504 13507 13510     9 
13504 13507 13510 13511     9 
13504 13507 13510 13512     9 
13504 13507 13510 13513     9 
13508 13507 13510 13511     9 
13508 13507 13510 13512     9 
13508 13507 13510 13513     9 
13509 13507 13510 13511     9 
13509 13507 13510 13512     9 
13509 13507 13510 13513     9 
13507 13510 13513 13514     9 
13507 13510 13513 13515     9 
13507 13510 13513 13516     9 
13511 13510 13513 13514     9 
13511 13510 13513 13515     9 
13511 13510 13513 13516     9 
13512 13510 13513 13514     9 
13512 13510 13513 13515     9 
13512 13510 13513 13516     9 
13510 13513 13516 13517     9 
13510 13513 13516 13518     9 
13510 13513 13516 13519     9 
13514 13513 13516 13517     9 
13514 13513 13516 13518     9 
13514 13513 13516 13519     9 
13515 13513 13516 13517     9 
13515 13513 13516 13518     9 
13515 13513 13516 13519     9 
13513 13516 13519 13520     9 
13513 13516 13519 13521     9 
13513 13516 13519 13522     9 
13517 13516 13519 13520     9 
13517 13516 13519 13521     9 
13517 13516 13519 13522     9 
13518 13516 13519 13520     9 
13518 13516 13519 13521     9 
13518 13516 13519 13522     9 
13516 13519 13522 13523     9 
13516 13519 13522 13524     9 
13516 13519 13522 13525     9 
13520 13519 13522 13523     9 
13520 13519 13522 13524     9 
13520 13519 13522 13525     9 
13521 13519 13522 13523     9 
13521 13519 13522 13524     9 
13521 13519 13522 13525     9 
13519 13522 13525 13526     9 
13519 13522 13525 13527     9 
13519 13522 13525 13528     9 
13523 13522 13525 13526     9 
13523 13522 13525 13527     9 
13523 13522 13525 13528     9 
13524 13522 13525 13526     9 
13524 13522 13525 13527     9 
13524 13522 13525 13528     9 
13522 13525 13528 13529     9 
13522 13525 13528 13530     9 
13522 13525 13528 13531     9 
13526 13525 13528 13529     9 
13526 13525 13528 13530     9 
13526 13525 13528 13531     9 
13527 13525 13528 13529     9 
13527 13525 13528 13530     9 
13527 13525 13528 13531     9 
13525 13528 13531 13532     9 
13525 13528 13531 13533     9 
13525 13528 13531 13534     9 
13529 13528 13531 13532     9 
13529 13528 13531 13533     9 
13529 13528 13531 13534     9 
13530 13528 13531 13532     9 
13530 13528 13531 13533     9 
13530 13528 13531 13534     9 
13539 13535 13536 13537     9 
13539 13535 13536 13538     9 
13539 13535 13536 13551     9 
13543 13535 13536 13537     9 
13543 13535 13536 13538     9 
13543 13535 13536 13551     9 
13547 13535 13536 13537     9 
13547 13535 13536 13538     9 
13547 13535 13536 13551     9 
13536 13535 13539 13540     9 
13536 13535 13539 13541     9 
13536 13535 13539 13542     9 
13543 13535 13539 13540     9 
13543 13535 13539 13541     9 
13543 13535 13539 13542     9 
13547 13535 13539 13540     9 
13547 13535 13539 13541     9 
13547 13535 13539 13542     9 
13536 13535 13543 13544     9 
13536 13535 13543 13545     9 
13536 13535 13543 13546     9 
13539 13535 13543 13544     9 
13539 13535 13543 13545     9 
13539 13535 13543 13546     9 
13547 13535 13543 13544     9 
13547 13535 13543 13545     9 
13547 13535 13543 13546     9 
13536 13535 13547 13548     9 
13536 13535 13547 13549     9 
13536 13535 13547 13550     9 
13539 13535 13547 13548     9 
13539 13535 13547 13549     9 
13539 13535 13547 13550     9 
13543 13535 13547 13548     9 
13543 13535 13547 13549     9 
13543 13535 13547 13550     9 
13535 13536 13551 13552     9 
13535 13536 13551 13553     9 
13535 13536 13551 13557     9 
13537 13536 13551 13552     9 
13537 13536 13551 13553     9 
13537 13536 13551 13557     9 
13538 13536 13551 13552     9 
13538 13536 13551 13553     9 
13538 13536 13551 13557     9 
13536 13551 13557 13554     9 
13552 13551 13557 13554     9 
13553 13551 13557 13554     9 
13555 13554 13557 13551     9 
13556 13554 13557 13551     9 
13558 13554 13557 13551     9 
13555 13554 13558 13559     9 
13556 13554 13558 13559     9 
13557 13554 13558 13559     9 
13554 13558 13559 13560     9 
13554 13558 13559 13561     9 
13554 13558 13559 13562     9 
13558 13559 13562 13563     9 
13558 13559 13562 13564     9 
13558 13559 13562 13570     9 
13560 13559 13562 13563     9 
13560 13559 13562 13564     9 
13560 13559 13562 13570     9 
13561 13559 13562 13563     9 
13561 13559 13562 13564     9 
13561 13559 13562 13570     9 
13559 13562 13564 13565     9 
13563 13562 13564 13565     9 
13570 13562 13564 13565     9 
13559 13562 13570 13571     9 
13559 13562 13570 13572     9 
13559 13562 13570 13573     9 
13563 13562 13570 13571     9 
13563 13562 13570 13572     9 
13563 13562 13570 13573     9 
13564 13562 13570 13571     9 
13564 13562 13570 13572     9 
13564 13562 13570 13573     9 
13562 13564 13565 13566     9 
13562 13564 13565 13567     9 
13564 13565 13567 13568     9 
13564 13565 13567 13569     9 
13564 13565 13567 13579     9 
13566 13565 13567 13568     9 
13566 13565 13567 13569     9 
13566 13565 13567 13579     9 
13565 13567 13579 13580     9 
13565 13567 13579 13581     9 
13565 13567 13579 13582     9 
13568 13567 13579 13580     9 
13568 13567 13579 13581     9 
13568 13567 13579 13582     9 
13569 13567 13579 13580     9 
13569 13567 13579 13581     9 
13569 13567 13579 13582     9 
13562 13570 13573 13574     9 
13571 13570 13573 13574     9 
13572 13570 13573 13574     9 
13570 13573 13574 13575     9 
13570 13573 13574 13576     9 
13573 13574 13576 13577     9 
13573 13574 13576 13578     9 
13573 13574 13576 13626     9 
13575 13574 13576 13577     9 
13575 13574 13576 13578     9 
13575 13574 13576 13626     9 
13574 13576 13626 13627     9 
13574 13576 13626 13628     9 
13574 13576 13626 13629     9 
13577 13576 13626 13627     9 
13577 13576 13626 13628     9 
13577 13576 13626 13629     9 
13578 13576 13626 13627     9 
13578 13576 13626 13628     9 
13578 13576 13626 13629     9 
13567 13579 13582 13583     9 
13567 13579 13582 13584     9 
13567 13579 13582 13585     9 
13580 13579 13582 13583     9 
13580 13579 13582 13584     9 
13580 13579 13582 13585     9 
13581 13579 13582 13583     9 
13581 13579 13582 13584     9 
13581 13579 13582 13585     9 
13579 13582 13585 13586     9 
13579 13582 13585 13587     9 
13579 13582 13585 13588     9 
13583 13582 13585 13586     9 
13583 13582 13585 13587     9 
13583 13582 13585 13588     9 
13584 13582 13585 13586     9 
13584 13582 13585 13587     9 
13584 13582 13585 13588     9 
13582 13585 13588 13589     9 
13582 13585 13588 13590     9 
13582 13585 13588 13591     9 
13586 13585 13588 13589     9 
13586 13585 13588 13590     9 
13586 13585 13588 13591     9 
13587 13585 13588 13589     9 
13587 13585 13588 13590     9 
13587 13585 13588 13591     9 
13585 13588 13591 13592     9 
13585 13588 13591 13593     9 
13585 13588 13591 13594     9 
13589 13588 13591 13592     9 
13589 13588 13591 13593     9 
13589 13588 13591 13594     9 
13590 13588 13591 13592     9 
13590 13588 13591 13593     9 
13590 13588 13591 13594     9 
13588 13591 13594 13595     9 
13588 13591 13594 13596     9 
13588 13591 13594 13597     9 
13592 13591 13594 13595     9 
13592 13591 13594 13596     9 
13592 13591 13594 13597     9 
13593 13591 13594 13595     9 
13593 13591 13594 13596     9 
13593 13591 13594 13597     9 
13591 13594 13597 13598     9 
13591 13594 13597 13599     9 
13595 13594 13597 13598     9 
13595 13594 13597 13599     9 
13596 13594 13597 13598     9 
13596 13594 13597 13599     9 
13594 13597 13599 13600     9 
13594 13597 13599 13601     9 
13598 13597 13599 13600     9 
13598 13597 13599 13601     9 
13597 13599 13601 13602     9 
13597 13599 13601 13603     9 
13597 13599 13601 13604     9 
13600 13599 13601 13602     9 
13600 13599 13601 13603     9 
13600 13599 13601 13604     9 
13599 13601 13604 13605     9 
13599 13601 13604 13606     9 
13599 13601 13604 13607     9 
13602 13601 13604 13605     9 
13602 13601 13604 13606     9 
13602 13601 13604 13607     9 
13603 13601 13604 13605     9 
13603 13601 13604 13606     9 
13603 13601 13604 13607     9 
13601 13604 13607 13608     9 
13601 13604 13607 13609     9 
13601 13604 13607 13610     9 
13605 13604 13607 13608     9 
13605 13604 13607 13609     9 
13605 13604 13607 13610     9 
13606 13604 13607 13608     9 
13606 13604 13607 13609     9 
13606 13604 13607 13610     9 
13604 13607 13610 13611     9 
13604 13607 13610 13612     9 
13604 13607 13610 13613     9 
13608 13607 13610 13611     9 
13608 13607 13610 13612     9 
13608 13607 13610 13613     9 
13609 13607 13610 13611     9 
13609 13607 13610 13612     9 
13609 13607 13610 13613     9 
13607 13610 13613 13614     9 
13607 13610 13613 13615     9 
13607 13610 13613 13616     9 
13611 13610 13613 13614     9 
13611 13610 13613 13615     9 
13611 13610 13613 13616     9 
13612 13610 13613 13614     9 
13612 13610 13613 13615     9 
13612 13610 13613 13616     9 
13610 13613 13616 13617     9 
13610 13613 13616 13618     9 
13610 13613 13616 13619     9 
13614 13613 13616 13617     9 
13614 13613 13616 13618     9 
13614 13613 13616 13619     9 
13615 13613 13616 13617     9 
13615 13613 13616 13618     9 
13615 13613 13616 13619     9 
13613 13616 13619 13620     9 
13613 13616 13619 13621     9 
13613 13616 13619 13622     9 
13617 13616 13619 13620     9 
13617 13616 13619 13621     9 
13617 13616 13619 13622     9 
13618 13616 13619 13620     9 
13618 13616 13619 13621     9 
13618 13616 13619 13622     9 
13616 13619 13622 13623     9 
13616 13619 13622 13624     9 
13616 13619 13622 13625     9 
13620 13619 13622 13623     9 
13620 13619 13622 13624     9 
13620 13619 13622 13625     9 
13621 13619 13622 13623     9 
13621 13619 13622 13624     9 
13621 13619 13622 13625     9 
13576 13626 13629 13630     9 
13576 13626 13629 13631     9 
13576 13626 13629 13632     9 
13627 13626 13629 13630     9 
13627 13626 13629 13631     9 
13627 13626 13629 13632     9 
13628 13626 13629 13630     9 
13628 13626 13629 13631     9 
13628 13626 13629 13632     9 
13626 13629 13632 13633     9 
13626 13629 13632 13634     9 
13626 13629 13632 13635     9 
13630 13629 13632 13633     9 
13630 13629 13632 13634     9 
13630 13629 13632 13635     9 
13631 13629 13632 13633     9 
13631 13629 13632 13634     9 
13631 13629 13632 13635     9 
13629 13632 13635 13636     9 
13629 13632 13635 13637     9 
13629 13632 13635 13638     9 
13633 13632 13635 13636     9 
13633 13632 13635 13637     9 
13633 13632 13635 13638     9 
13634 13632 13635 13636     9 
13634 13632 13635 13637     9 
13634 13632 13635 13638     9 
13632 13635 13638 13639     9 
13632 13635 13638 13640     9 
13632 13635 13638 13641     9 
13636 13635 13638 13639     9 
13636 13635 13638 13640     9 
13636 13635 13638 13641     9 
13637 13635 13638 13639     9 
13637 13635 13638 13640     9 
13637 13635 13638 13641     9 
13635 13638 13641 13642     9 
13635 13638 13641 13643     9 
13635 13638 13641 13644     9 
13639 13638 13641 13642     9 
13639 13638 13641 13643     9 
13639 13638 13641 13644     9 
13640 13638 13641 13642     9 
13640 13638 13641 13643     9 
13640 13638 13641 13644     9 
13638 13641 13644 13645     9 
13638 13641 13644 13646     9 
13638 13641 13644 13647     9 
13642 13641 13644 13645     9 
13642 13641 13644 13646     9 
13642 13641 13644 13647     9 
13643 13641 13644 13645     9 
13643 13641 13644 13646     9 
13643 13641 13644 13647     9 
13641 13644 13647 13648     9 
13641 13644 13647 13649     9 
13641 13644 13647 13650     9 
13645 13644 13647 13648     9 
13645 13644 13647 13649     9 
13645 13644 13647 13650     9 
13646 13644 13647 13648     9 
13646 13644 13647 13649     9 
13646 13644 13647 13650     9 
13644 13647 13650 13651     9 
13644 13647 13650 13652     9 
13644 13647 13650 13653     9 
13648 13647 13650 13651     9 
13648 13647 13650 13652     9 
13648 13647 13650 13653     9 
13649 13647 13650 13651     9 
13649 13647 13650 13652     9 
13649 13647 13650 13653     9 
13647 13650 13653 13654     9 
13647 13650 13653 13655     9 
13647 13650 13653 13656     9 
13651 13650 13653 13654     9 
13651 13650 13653 13655     9 
13651 13650 13653 13656     9 
13652 13650 13653 13654     9 
13652 13650 13653 13655     9 
13652 13650 13653 13656     9 
13650 13653 13656 13657     9 
13650 13653 13656 13658     9 
13650 13653 13656 13659     9 
13654 13653 13656 13657     9 
13654 13653 13656 13658     9 
13654 13653 13656 13659     9 
13655 13653 13656 13657     9 
13655 13653 13656 13658     9 
13655 13653 13656 13659     9 
13653 13656 13659 13660     9 
13653 13656 13659 13661     9 
13653 13656 13659 13662     9 
13657 13656 13659 13660     9 
13657 13656 13659 13661     9 
13657 13656 13659 13662     9 
13658 13656 13659 13660     9 
13658 13656 13659 13661     9 
13658 13656 13659 13662     9 
13656 13659 13662 13663     9 
13656 13659 13662 13664     9 
13656 13659 13662 13665     9 
13660 13659 13662 13663     9 
13660 13659 13662 13664     9 
13660 13659 13662 13665     9 
13661 13659 13662 13663     9 
13661 13659 13662 13664     9 
13661 13659 13662 13665     9 
13659 13662 13665 13666     9 
13659 13662 13665 13667     9 
13659 13662 13665 13668     9 
13663 13662 13665 13666     9 
13663 13662 13665 13667     9 
13663 13662 13665 13668     9 
13664 13662 13665 13666     9 
13664 13662 13665 13667     9 
13664 13662 13665 13668     9 
13673 13669 13670 13671     9 
13673 13669 13670 13672     9 
13673 13669 13670 13685     9 
13677 13669 13670 13671     9 
13677 13669 13670 13672     9 
13677 13669 13670 13685     9 
13681 13669 13670 13671     9 
13681 13669 13670 13672     9 
13681 13669 13670 13685     9 
13670 13669 13673 13674     9 
13670 13669 13673 13675     9 
13670 13669 13673 13676     9 
13677 13669 13673 13674     9 
13677 13669 13673 13675     9 
13677 13669 13673 13676     9 
13681 13669 13673 13674     9 
13681 13669 13673 13675     9 
13681 13669 13673 13676     9 
13670 13669 13677 13678     9 
13670 13669 13677 13679     9 
13670 13669 13677 13680     9 
13673 13669 13677 13678     9 
13673 13669 13677 13679     9 
13673 13669 13677 13680     9 
13681 13669 13677 13678     9 
13681 13669 13677 13679     9 
13681 13669 13677 13680     9 
13670 13669 13681 13682     9 
13670 13669 13681 13683     9 
13670 13669 13681 13684     9 
13673 13669 13681 13682     9 
13673 13669 13681 13683     9 
13673 13669 13681 13684     9 
13677 13669 13681 13682     9 
13677 13669 13681 13683     9 
13677 13669 13681 13684     9 
13669 13670 13685 13686     9 
13669 13670 13685 13687     9 
13669 13670 13685 13691     9 
13671 13670 13685 13686     9 
13671 13670 13685 13687     9 
13671 13670 13685 13691     9 
13672 13670 13685 13686     9 
13672 13670 13685 13687     9 
13672 13670 13685 13691     9 
13670 13685 13691 13688     9 
13686 13685 13691 13688     9 
13687 13685 13691 13688     9 
13689 13688 13691 13685     9 
13690 13688 13691 13685     9 
13692 13688 13691 13685     9 
13689 13688 13692 13693     9 
13690 13688 13692 13693     9 
13691 13688 13692 13693     9 
13688 13692 13693 13694     9 
13688 13692 13693 13695     9 
13688 13692 13693 13696     9 
13692 13693 13696 13697     9 
13692 13693 13696 13698     9 
13692 13693 13696 13704     9 
13694 13693 13696 13697     9 
13694 13693 13696 13698     9 
13694 13693 13696 13704     9 
13695 13693 13696 13697     9 
13695 13693 13696 13698     9 
13695 13693 13696 13704     9 
13693 13696 13698 13699     9 
13697 13696 13698 13699     9 
13704 13696 13698 13699     9 
13693 13696 13704 13705     9 
13693 13696 13704 13706     9 
13693 13696 13704 13707     9 
13697 13696 13704 13705     9 
13697 13696 13704 13706     9 
13697 13696 13704 13707     9 
13698 13696 13704 13705     9 
13698 13696 13704 13706     9 
13698 13696 13704 13707     9 
13696 13698 13699 13700     9 
13696 13698 13699 13701     9 
13698 13699 13701 13702     9 
13698 13699 13701 13703     9 
13698 13699 13701 13713     9 
13700 13699 13701 13702     9 
13700 13699 13701 13703     9 
13700 13699 13701 13713     9 
13699 13701 13713 13714     9 
13699 13701 13713 13715     9 
13699 13701 13713 13716     9 
13702 13701 13713 13714     9 
13702 13701 13713 13715     9 
13702 13701 13713 13716     9 
13703 13701 13713 13714     9 
13703 13701 13713 13715     9 
13703 13701 13713 13716     9 
13696 13704 13707 13708     9 
13705 13704 13707 13708     9 
13706 13704 13707 13708     9 
13704 13707 13708 13709     9 
13704 13707 13708 13710     9 
13707 13708 13710 13711     9 
13707 13708 13710 13712     9 
13707 13708 13710 13760     9 
13709 13708 13710 13711     9 
13709 13708 13710 13712     9 
13709 13708 13710 13760     9 
13708 13710 13760 13761     9 
13708 13710 13760 13762     9 
13708 13710 13760 13763     9 
13711 13710 13760 13761     9 
13711 13710 13760 13762     9 
13711 13710 13760 13763     9 
13712 13710 13760 13761     9 
13712 13710 13760 13762     9 
13712 13710 13760 13763     9 
13701 13713 13716 13717     9 
13701 13713 13716 13718     9 
13701 13713 13716 13719     9 
13714 13713 13716 13717     9 
13714 13713 13716 13718     9 
13714 13713 13716 13719     9 
13715 13713 13716 13717     9 
13715 13713 13716 13718     9 
13715 13713 13716 13719     9 
13713 13716 13719 13720     9 
13713 13716 13719 13721     9 
13713 13716 13719 13722     9 
13717 13716 13719 13720     9 
13717 13716 13719 13721     9 
13717 13716 13719 13722     9 
13718 13716 13719 13720     9 
13718 13716 13719 13721     9 
13718 13716 13719 13722     9 
13716 13719 13722 13723     9 
13716 13719 13722 13724     9 
13716 13719 13722 13725     9 
13720 13719 13722 13723     9 
13720 13719 13722 13724     9 
13720 13719 13722 13725     9 
13721 13719 13722 13723     9 
13721 13719 13722 13724     9 
13721 13719 13722 13725     9 
13719 13722 13725 13726     9 
13719 13722 13725 13727     9 
13719 13722 13725 13728     9 
13723 13722 13725 13726     9 
13723 13722 13725 13727     9 
13723 13722 13725 13728     9 
13724 13722 13725 13726     9 
13724 13722 13725 13727     9 
13724 13722 13725 13728     9 
13722 13725 13728 13729     9 
13722 13725 13728 13730     9 
13722 13725 13728 13731     9 
13726 13725 13728 13729     9 
13726 13725 13728 13730     9 
13726 13725 13728 13731     9 
13727 13725 13728 13729     9 
13727 13725 13728 13730     9 
13727 13725 13728 13731     9 
13725 13728 13731 13732     9 
13725 13728 13731 13733     9 
13729 13728 13731 13732     9 
13729 13728 13731 13733     9 
13730 13728 13731 13732     9 
13730 13728 13731 13733     9 
13728 13731 13733 13734     9 
13728 13731 13733 13735     9 
13732 13731 13733 13734     9 
13732 13731 13733 13735     9 
13731 13733 13735 13736     9 
13731 13733 13735 13737     9 
13731 13733 13735 13738     9 
13734 13733 13735 13736     9 
13734 13733 13735 13737     9 
13734 13733 13735 13738     9 
13733 13735 13738 13739     9 
13733 13735 13738 13740     9 
13733 13735 13738 13741     9 
13736 13735 13738 13739     9 
13736 13735 13738 13740     9 
13736 13735 13738 13741     9 
13737 13735 13738 13739     9 
13737 13735 13738 13740     9 
13737 13735 13738 13741     9 
13735 13738 13741 13742     9 
13735 13738 13741 13743     9 
13735 13738 13741 13744     9 
13739 13738 13741 13742     9 
13739 13738 13741 13743     9 
13739 13738 13741 13744     9 
13740 13738 13741 13742     9 
13740 13738 13741 13743     9 
13740 13738 13741 13744     9 
13738 13741 13744 13745     9 
13738 13741 13744 13746     9 
13738 13741 13744 13747     9 
13742 13741 13744 13745     9 
13742 13741 13744 13746     9 
13742 13741 13744 13747     9 
13743 13741 13744 13745     9 
13743 13741 13744 13746     9 
13743 13741 13744 13747     9 
13741 13744 13747 13748     9 
13741 13744 13747 13749     9 
13741 13744 13747 13750     9 
13745 13744 13747 13748     9 
13745 13744 13747 13749     9 
13745 13744 13747 13750     9 
13746 13744 13747 13748     9 
13746 13744 13747 13749     9 
13746 13744 13747 13750     9 
13744 13747 13750 13751     9 
13744 13747 13750 13752     9 
13744 13747 13750 13753     9 
13748 13747 13750 13751     9 
13748 13747 13750 13752     9 
13748 13747 13750 13753     9 
13749 13747 13750 13751     9 
13749 13747 13750 13752     9 
13749 13747 13750 13753     9 
13747 13750 13753 13754     9 
13747 13750 13753 13755     9 
13747 13750 13753 13756     9 
13751 13750 13753 13754     9 
13751 13750 13753 13755     9 
13751 13750 13753 13756     9 
13752 13750 13753 13754     9 
13752 13750 13753 13755     9 
13752 13750 13753 13756     9 
13750 13753 13756 13757     9 
13750 13753 13756 13758     9 
13750 13753 13756 13759     9 
13754 13753 13756 13757     9 
13754 13753 13756 13758     9 
13754 13753 13756 13759     9 
13755 13753 13756 13757     9 
13755 13753 13756 13758     9 
13755 13753 13756 13759     9 
13710 13760 13763 13764     9 
13710 13760 13763 13765     9 
13710 13760 13763 13766     9 
13761 13760 13763 13764     9 
13761 13760 13763 13765     9 
13761 13760 13763 13766     9 
13762 13760 13763 13764     9 
13762 13760 13763 13765     9 
13762 13760 13763 13766     9 
13760 13763 13766 13767     9 
13760 13763 13766 13768     9 
13760 13763 13766 13769     9 
13764 13763 13766 13767     9 
13764 13763 13766 13768     9 
13764 13763 13766 13769     9 
13765 13763 13766 13767     9 
13765 13763 13766 13768     9 
13765 13763 13766 13769     9 
13763 13766 13769 13770     9 
13763 13766 13769 13771     9 
13763 13766 13769 13772     9 
13767 13766 13769 13770     9 
13767 13766 13769 13771     9 
13767 13766 13769 13772     9 
13768 13766 13769 13770     9 
13768 13766 13769 13771     9 
13768 13766 13769 13772     9 
13766 13769 13772 13773     9 
13766 13769 13772 13774     9 
13766 13769 13772 13775     9 
13770 13769 13772 13773     9 
13770 13769 13772 13774     9 
13770 13769 13772 13775     9 
13771 13769 13772 13773     9 
13771 13769 13772 13774     9 
13771 13769 13772 13775     9 
13769 13772 13775 13776     9 
13769 13772 13775 13777     9 
13769 13772 13775 13778     9 
13773 13772 13775 13776     9 
13773 13772 13775 13777     9 
13773 13772 13775 13778     9 
13774 13772 13775 13776     9 
13774 13772 13775 13777     9 
13774 13772 13775 13778     9 
13772 13775 13778 13779     9 
13772 13775 13778 13780     9 
13772 13775 13778 13781     9 
13776 13775 13778 13779     9 
13776 13775 13778 13780     9 
13776 13775 13778 13781     9 
13777 13775 13778 13779     9 
13777 13775 13778 13780     9 
13777 13775 13778 13781     9 
13775 13778 13781 13782     9 
13775 13778 13781 13783     9 
13775 13778 13781 13784     9 
13779 13778 13781 13782     9 
13779 13778 13781 13783     9 
13779 13778 13781 13784     9 
13780 13778 13781 13782     9 
13780 13778 13781 13783     9 
13780 13778 13781 13784     9 
13778 13781 13784 13785     9 
13778 13781 13784 13786     9 
13778 13781 13784 13787     9 
13782 13781 13784 13785     9 
13782 13781 13784 13786     9 
13782 13781 13784 13787     9 
13783 13781 13784 13785     9 
13783 13781 13784 13786     9 
13783 13781 13784 13787     9 
13781 13784 13787 13788     9 
13781 13784 13787 13789     9 
13781 13784 13787 13790     9 
13785 13784 13787 13788     9 
13785 13784 13787 13789     9 
13785 13784 13787 13790     9 
13786 13784 13787 13788     9 
13786 13784 13787 13789     9 
13786 13784 13787 13790     9 
13784 13787 13790 13791     9 
13784 13787 13790 13792     9 
13784 13787 13790 13793     9 
13788 13787 13790 13791     9 
13788 13787 13790 13792     9 
13788 13787 13790 13793     9 
13789 13787 13790 13791     9 
13789 13787 13790 13792     9 
13789 13787 13790 13793     9 
13787 13790 13793 13794     9 
13787 13790 13793 13795     9 
13787 13790 13793 13796     9 
13791 13790 13793 13794     9 
13791 13790 13793 13795     9 
13791 13790 13793 13796     9 
13792 13790 13793 13794     9 
13792 13790 13793 13795     9 
13792 13790 13793 13796     9 
13790 13793 13796 13797     9 
13790 13793 13796 13798     9 
13790 13793 13796 13799     9 
13794 13793 13796 13797     9 
13794 13793 13796 13798     9 
13794 13793 13796 13799     9 
13795 13793 13796 13797     9 
13795 13793 13796 13798     9 
13795 13793 13796 13799     9 
13793 13796 13799 13800     9 
13793 13796 13799 13801     9 
13793 13796 13799 13802     9 
13797 13796 13799 13800     9 
13797 13796 13799 13801     9 
13797 13796 13799 13802     9 
13798 13796 13799 13800     9 
13798 13796 13799 13801     9 
13798 13796 13799 13802     9 
13807 13803 13804 13805     9 
13807 13803 13804 13806     9 
13807 13803 13804 13819     9 
13811 13803 13804 13805     9 
13811 13803 13804 13806     9 
13811 13803 13804 13819     9 
13815 13803 13804 13805     9 
13815 13803 13804 13806     9 
13815 13803 13804 13819     9 
13804 13803 13807 13808     9 
13804 13803 13807 13809     9 
13804 13803 13807 13810     9 
13811 13803 13807 13808     9 
13811 13803 13807 13809     9 
13811 13803 13807 13810     9 
13815 13803 13807 13808     9 
13815 13803 13807 13809     9 
13815 13803 13807 13810     9 
13804 13803 13811 13812     9 
13804 13803 13811 13813     9 
13804 13803 13811 13814     9 
13807 13803 13811 13812     9 
13807 13803 13811 13813     9 
13807 13803 13811 13814     9 
13815 13803 13811 13812     9 
13815 13803 13811 13813     9 
13815 13803 13811 13814     9 
13804 13803 13815 13816     9 
13804 13803 13815 13817     9 
13804 13803 13815 13818     9 
13807 13803 13815 13816     9 
13807 13803 13815 13817     9 
13807 13803 13815 13818     9 
13811 13803 13815 13816     9 
13811 13803 13815 13817     9 
13811 13803 13815 13818     9 
13803 13804 13819 13820     9 
13803 13804 13819 13821     9 
13803 13804 13819 13825     9 
13805 13804 13819 13820     9 
13805 13804 13819 13821     9 
13805 13804 13819 13825     9 
13806 13804 13819 13820     9 
13806 13804 13819 13821     9 
13806 13804 13819 13825     9 
13804 13819 13825 13822     9 
13820 13819 13825 13822     9 
13821 13819 13825 13822     9 
13823 13822 13825 13819     9 
13824 13822 13825 13819     9 
13826 13822 13825 13819     9 
13823 13822 13826 13827     9 
13824 13822 13826 13827     9 
13825 13822 13826 13827     9 
13822 13826 13827 13828     9 
13822 13826 13827 13829     9 
13822 13826 13827 13830     9 
13826 13827 13830 13831     9 
13826 13827 13830 13832     9 
13826 13827 13830 13838     9 
13828 13827 13830 13831     9 
13828 13827 13830 13832     9 
13828 13827 13830 13838     9 
13829 13827 13830 13831     9 
13829 13827 13830 13832     9 
13829 13827 13830 13838     9 
13827 13830 13832 13833     9 
13831 13830 13832 13833     9 
13838 13830 13832 13833     9 
13827 13830 13838 13839     9 
13827 13830 13838 13840     9 
13827 13830 13838 13841     9 
13831 13830 13838 13839     9 
13831 13830 13838 13840     9 
13831 13830 13838 13841     9 
13832 13830 13838 13839     9 
13832 13830 13838 13840     9 
13832 13830 13838 13841     9 
13830 13832 13833 13834     9 
13830 13832 13833 13835     9 
13832 13833 13835 13836     9 
13832 13833 13835 13837     9 
13832 13833 13835 13847     9 
13834 13833 13835 13836     9 
13834 13833 13835 13837     9 
13834 13833 13835 13847     9 
13833 13835 13847 13848     9 
13833 13835 13847 13849     9 
13833 13835 13847 13850     9 
13836 13835 13847 13848     9 
13836 13835 13847 13849     9 
13836 13835 13847 13850     9 
13837 13835 13847 13848     9 
13837 13835 13847 13849     9 
13837 13835 13847 13850     9 
13830 13838 13841 13842     9 
13839 13838 13841 13842     9 
13840 13838 13841 13842     9 
13838 13841 13842 13843     9 
13838 13841 13842 13844     9 
13841 13842 13844 13845     9 
13841 13842 13844 13846     9 
13841 13842 13844 13894     9 
13843 13842 13844 13845     9 
13843 13842 13844 13846     9 
13843 13842 13844 13894     9 
13842 13844 13894 13895     9 
13842 13844 13894 13896     9 
13842 13844 13894 13897     9 
13845 13844 13894 13895     9 
13845 13844 13894 13896     9 
13845 13844 13894 13897     9 
13846 13844 13894 13895     9 
13846 13844 13894 13896     9 
13846 13844 13894 13897     9 
13835 13847 13850 13851     9 
13835 13847 13850 13852     9 
13835 13847 13850 13853     9 
13848 13847 13850 13851     9 
13848 13847 13850 13852     9 
13848 13847 13850 13853     9 
13849 13847 13850 13851     9 
13849 13847 13850 13852     9 
13849 13847 13850 13853     9 
13847 13850 13853 13854     9 
13847 13850 13853 13855     9 
13847 13850 13853 13856     9 
13851 13850 13853 13854     9 
13851 13850 13853 13855     9 
13851 13850 13853 13856     9 
13852 13850 13853 13854     9 
13852 13850 13853 13855     9 
13852 13850 13853 13856     9 
13850 13853 13856 13857     9 
13850 13853 13856 13858     9 
13850 13853 13856 13859     9 
13854 13853 13856 13857     9 
13854 13853 13856 13858     9 
13854 13853 13856 13859     9 
13855 13853 13856 13857     9 
13855 13853 13856 13858     9 
13855 13853 13856 13859     9 
13853 13856 13859 13860     9 
13853 13856 13859 13861     9 
13853 13856 13859 13862     9 
13857 13856 13859 13860     9 
13857 13856 13859 13861     9 
13857 13856 13859 13862     9 
13858 13856 13859 13860     9 
13858 13856 13859 13861     9 
13858 13856 13859 13862     9 
13856 13859 13862 13863     9 
13856 13859 13862 13864     9 
13856 13859 13862 13865     9 
13860 13859 13862 13863     9 
13860 13859 13862 13864     9 
13860 13859 13862 13865     9 
13861 13859 13862 13863     9 
13861 13859 13862 13864     9 
13861 13859 13862 13865     9 
13859 13862 13865 13866     9 
13859 13862 13865 13867     9 
13863 13862 13865 13866     9 
13863 13862 13865 13867     9 
13864 13862 13865 13866     9 
13864 13862 13865 13867     9 
13862 13865 13867 13868     9 
13862 13865 13867 13869     9 
13866 13865 13867 13868     9 
13866 13865 13867 13869     9 
13865 13867 13869 13870     9 
13865 13867 13869 13871     9 
13865 13867 13869 13872     9 
13868 13867 13869 13870     9 
13868 13867 13869 13871     9 
13868 13867 13869 13872     9 
13867 13869 13872 13873     9 
13867 13869 13872 13874     9 
13867 13869 13872 13875     9 
13870 13869 13872 13873     9 
13870 13869 13872 13874     9 
13870 13869 13872 13875     9 
13871 13869 13872 13873     9 
13871 13869 13872 13874     9 
13871 13869 13872 13875     9 
13869 13872 13875 13876     9 
13869 13872 13875 13877     9 
13869 13872 13875 13878     9 
13873 13872 13875 13876     9 
13873 13872 13875 13877     9 
13873 13872 13875 13878     9 
13874 13872 13875 13876     9 
13874 13872 13875 13877     9 
13874 13872 13875 13878     9 
13872 13875 13878 13879     9 
13872 13875 13878 13880     9 
13872 13875 13878 13881     9 
13876 13875 13878 13879     9 
13876 13875 13878 13880     9 
13876 13875 13878 13881     9 
13877 13875 13878 13879     9 
13877 13875 13878 13880     9 
13877 13875 13878 13881     9 
13875 13878 13881 13882     9 
13875 13878 13881 13883     9 
13875 13878 13881 13884     9 
13879 13878 13881 13882     9 
13879 13878 13881 13883     9 
13879 13878 13881 13884     9 
13880 13878 13881 13882     9 
13880 13878 13881 13883     9 
13880 13878 13881 13884     9 
13878 13881 13884 13885     9 
13878 13881 13884 13886     9 
13878 13881 13884 13887     9 
13882 13881 13884 13885     9 
13882 13881 13884 13886     9 
13882 13881 13884 13887     9 
13883 13881 13884 13885     9 
13883 13881 13884 13886     9 
13883 13881 13884 13887     9 
13881 13884 13887 13888     9 
13881 13884 13887 13889     9 
13881 13884 13887 13890     9 
13885 13884 13887 13888     9 
13885 13884 13887 13889     9 
13885 13884 13887 13890     9 
13886 13884 13887 13888     9 
13886 13884 13887 13889     9 
13886 13884 13887 13890     9 
13884 13887 13890 13891     9 
13884 13887 13890 13892     9 
13884 13887 13890 13893     9 
13888 13887 13890 13891     9 
13888 13887 13890 13892     9 
13888 13887 13890 13893     9 
13889 13887 13890 13891     9 
13889 13887 13890 13892     9 
13889 13887 13890 13893     9 
13844 13894 13897 13898     9 
13844 13894 13897 13899     9 
13844 13894 13897 13900     9 
13895 13894 13897 13898     9 
13895 13894 13897 13899     9 
13895 13894 13897 13900     9 
13896 13894 13897 13898     9 
13896 13894 13897 13899     9 
13896 13894 13897 13900     9 
13894 13897 13900 13901     9 
13894 13897 13900 13902     9 
13894 13897 13900 13903     9 
13898 13897 13900 13901     9 
13898 13897 13900 13902     9 
13898 13897 13900 13903     9 
13899 13897 13900 13901     9 
13899 13897 13900 13902     9 
13899 13897 13900 13903     9 
13897 13900 13903 13904     9 
13897 13900 13903 13905     9 
13897 13900 13903 13906     9 
13901 13900 13903 13904     9 
13901 13900 13903 13905     9 
13901 13900 13903 13906     9 
13902 13900 13903 13904     9 
13902 13900 13903 13905     9 
13902 13900 13903 13906     9 
13900 13903 13906 13907     9 
13900 13903 13906 13908     9 
13900 13903 13906 13909     9 
13904 13903 13906 13907     9 
13904 13903 13906 13908     9 
13904 13903 13906 13909     9 
13905 13903 13906 13907     9 
13905 13903 13906 13908     9 
13905 13903 13906 13909     9 
13903 13906 13909 13910     9 
13903 13906 13909 13911     9 
13903 13906 13909 13912     9 
13907 13906 13909 13910     9 
13907 13906 13909 13911     9 
13907 13906 13909 13912     9 
13908 13906 13909 13910     9 
13908 13906 13909 13911     9 
13908 13906 13909 13912     9 
13906 13909 13912 13913     9 
13906 13909 13912 13914     9 
13906 13909 13912 13915     9 
13910 13909 13912 13913     9 
13910 13909 13912 13914     9 
13910 13909 13912 13915     9 
13911 13909 13912 13913     9 
13911 13909 13912 13914     9 
13911 13909 13912 13915     9 
13909 13912 13915 13916     9 
13909 13912 13915 13917     9 
13909 13912 13915 13918     9 
13913 13912 13915 13916     9 
13913 13912 13915 13917     9 
13913 13912 13915 13918     9 
13914 13912 13915 13916     9 
13914 13912 13915 13917     9 
13914 13912 13915 13918     9 
13912 13915 13918 13919     9 
13912 13915 13918 13920     9 
13912 13915 13918 13921     9 
13916 13915 13918 13919     9 
13916 13915 13918 13920     9 
13916 13915 13918 13921     9 
13917 13915 13918 13919     9 
13917 13915 13918 13920     9 
13917 13915 13918 13921     9 
13915 13918 13921 13922     9 
13915 13918 13921 13923     9 
13915 13918 13921 13924     9 
13919 13918 13921 13922     9 
13919 13918 13921 13923     9 
13919 13918 13921 13924     9 
13920 13918 13921 13922     9 
13920 13918 13921 13923     9 
13920 13918 13921 13924     9 
13918 13921 13924 13925     9 
13918 13921 13924 13926     9 
13918 13921 13924 13927     9 
13922 13921 13924 13925     9 
13922 13921 13924 13926     9 
13922 13921 13924 13927     9 
13923 13921 13924 13925     9 
13923 13921 13924 13926     9 
13923 13921 13924 13927     9 
13921 13924 13927 13928     9 
13921 13924 13927 13929     9 
13921 13924 13927 13930     9 
13925 13924 13927 13928     9 
13925 13924 13927 13929     9 
13925 13924 13927 13930     9 
13926 13924 13927 13928     9 
13926 13924 13927 13929     9 
13926 13924 13927 13930     9 
13924 13927 13930 13931     9 
13924 13927 13930 13932     9 
13924 13927 13930 13933     9 
13928 13927 13930 13931     9 
13928 13927 13930 13932     9 
13928 13927 13930 13933     9 
13929 13927 13930 13931     9 
13929 13927 13930 13932     9 
13929 13927 13930 13933     9 
13927 13930 13933 13934     9 
13927 13930 13933 13935     9 
13927 13930 13933 13936     9 
13931 13930 13933 13934     9 
13931 13930 13933 13935     9 
13931 13930 13933 13936     9 
13932 13930 13933 13934     9 
13932 13930 13933 13935     9 
13932 13930 13933 13936     9 
13941 13937 13938 13939     9 
13941 13937 13938 13940     9 
13941 13937 13938 13953     9 
13945 13937 13938 13939     9 
13945 13937 13938 13940     9 
13945 13937 13938 13953     9 
13949 13937 13938 13939     9 
13949 13937 13938 13940     9 
13949 13937 13938 13953     9 
13938 13937 13941 13942     9 
13938 13937 13941 13943     9 
13938 13937 13941 13944     9 
13945 13937 13941 13942     9 
13945 13937 13941 13943     9 
13945 13937 13941 13944     9 
13949 13937 13941 13942     9 
13949 13937 13941 13943     9 
13949 13937 13941 13944     9 
13938 13937 13945 13946     9 
13938 13937 13945 13947     9 
13938 13937 13945 13948     9 
13941 13937 13945 13946     9 
13941 13937 13945 13947     9 
13941 13937 13945 13948     9 
13949 13937 13945 13946     9 
13949 13937 13945 13947     9 
13949 13937 13945 13948     9 
13938 13937 13949 13950     9 
13938 13937 13949 13951     9 
13938 13937 13949 13952     9 
13941 13937 13949 13950     9 
13941 13937 13949 13951     9 
13941 13937 13949 13952     9 
13945 13937 13949 13950     9 
13945 13937 13949 13951     9 
13945 13937 13949 13952     9 
13937 13938 13953 13954     9 
13937 13938 13953 13955     9 
13937 13938 13953 13959     9 
13939 13938 13953 13954     9 
13939 13938 13953 13955     9 
13939 13938 13953 13959     9 
13940 13938 13953 13954     9 
13940 13938 13953 13955     9 
13940 13938 13953 13959     9 
13938 13953 13959 13956     9 
13954 13953 13959 13956     9 
13955 13953 13959 13956     9 
13957 13956 13959 13953     9 
13958 13956 13959 13953     9 
13960 13956 13959 13953     9 
13957 13956 13960 13961     9 
13958 13956 13960 13961     9 
13959 13956 13960 13961     9 
13956 13960 13961 13962     9 
13956 13960 13961 13963     9 
13956 13960 13961 13964     9 
13960 13961 13964 13965     9 
13960 13961 13964 13966     9 
13960 13961 13964 13972     9 
13962 13961 13964 13965     9 
13962 13961 13964 13966     9 
13962 13961 13964 13972     9 
13963 13961 13964 13965     9 
13963 13961 13964 13966     9 
13963 13961 13964 13972     9 
13961 13964 13966 13967     9 
13965 13964 13966 13967     9 
13972 13964 13966 13967     9 
13961 13964 13972 13973     9 
13961 13964 13972 13974     9 
13961 13964 13972 13975     9 
13965 13964 13972 13973     9 
13965 13964 13972 13974     9 
13965 13964 13972 13975     9 
13966 13964 13972 13973     9 
13966 13964 13972 13974     9 
13966 13964 13972 13975     9 
13964 13966 13967 13968     9 
13964 13966 13967 13969     9 
13966 13967 13969 13970     9 
13966 13967 13969 13971     9 
13966 13967 13969 13981     9 
13968 13967 13969 13970     9 
13968 13967 13969 13971     9 
13968 13967 13969 13981     9 
13967 13969 13981 13982     9 
13967 13969 13981 13983     9 
13967 13969 13981 13984     9 
13970 13969 13981 13982     9 
13970 13969 13981 13983     9 
13970 13969 13981 13984     9 
13971 13969 13981 13982     9 
13971 13969 13981 13983     9 
13971 13969 13981 13984     9 
13964 13972 13975 13976     9 
13973 13972 13975 13976     9 
13974 13972 13975 13976     9 
13972 13975 13976 13977     9 
13972 13975 13976 13978     9 
13975 13976 13978 13979     9 
13975 13976 13978 13980     9 
13975 13976 13978 14028     9 
13977 13976 13978 13979     9 
13977 13976 13978 13980     9 
13977 13976 13978 14028     9 
13976 13978 14028 14029     9 
13976 13978 14028 14030     9 
13976 13978 14028 14031     9 
13979 13978 14028 14029     9 
13979 13978 14028 14030     9 
13979 13978 14028 14031     9 
13980 13978 14028 14029     9 
13980 13978 14028 14030     9 
13980 13978 14028 14031     9 
13969 13981 13984 13985     9 
13969 13981 13984 13986     9 
13969 13981 13984 13987     9 
13982 13981 13984 13985     9 
13982 13981 13984 13986     9 
13982 13981 13984 13987     9 
13983 13981 13984 13985     9 
13983 13981 13984 13986     9 
13983 13981 13984 13987     9 
13981 13984 13987 13988     9 
13981 13984 13987 13989     9 
13981 13984 13987 13990     9 
13985 13984 13987 13988     9 
13985 13984 13987 13989     9 
13985 13984 13987 13990     9 
13986 13984 13987 13988     9 
13986 13984 13987 13989     9 
13986 13984 13987 13990     9 
13984 13987 13990 13991     9 
13984 13987 13990 13992     9 
13984 13987 13990 13993     9 
13988 13987 13990 13991     9 
13988 13987 13990 13992     9 
13988 13987 13990 13993     9 
13989 13987 13990 13991     9 
13989 13987 13990 13992     9 
13989 13987 13990 13993     9 
13987 13990 13993 13994     9 
13987 13990 13993 13995     9 
13987 13990 13993 13996     9 
13991 13990 13993 13994     9 
13991 13990 13993 13995     9 
13991 13990 13993 13996     9 
13992 13990 13993 13994     9 
13992 13990 13993 13995     9 
13992 13990 13993 13996     9 
13990 13993 13996 13997     9 
13990 13993 13996 13998     9 
13990 13993 13996 13999     9 
13994 13993 13996 13997     9 
13994 13993 13996 13998     9 
13994 13993 13996 13999     9 
13995 13993 13996 13997     9 
13995 13993 13996 13998     9 
13995 13993 13996 13999     9 
13993 13996 13999 14000     9 
13993 13996 13999 14001     9 
13997 13996 13999 14000     9 
13997 13996 13999 14001     9 
13998 13996 13999 14000     9 
13998 13996 13999 14001     9 
13996 13999 14001 14002     9 
13996 13999 14001 14003     9 
14000 13999 14001 14002     9 
14000 13999 14001 14003     9 
13999 14001 14003 14004     9 
13999 14001 14003 14005     9 
13999 14001 14003 14006     9 
14002 14001 14003 14004     9 
14002 14001 14003 14005     9 
14002 14001 14003 14006     9 
14001 14003 14006 14007     9 
14001 14003 14006 14008     9 
14001 14003 14006 14009     9 
14004 14003 14006 14007     9 
14004 14003 14006 14008     9 
14004 14003 14006 14009     9 
14005 14003 14006 14007     9 
14005 14003 14006 14008     9 
14005 14003 14006 14009     9 
14003 14006 14009 14010     9 
14003 14006 14009 14011     9 
14003 14006 14009 14012     9 
14007 14006 14009 14010     9 
14007 14006 14009 14011     9 
14007 14006 14009 14012     9 
14008 14006 14009 14010     9 
14008 14006 14009 14011     9 
14008 14006 14009 14012     9 
14006 14009 14012 14013     9 
14006 14009 14012 14014     9 
14006 14009 14012 14015     9 
14010 14009 14012 14013     9 
14010 14009 14012 14014     9 
14010 14009 14012 14015     9 
14011 14009 14012 14013     9 
14011 14009 14012 14014     9 
14011 14009 14012 14015     9 
14009 14012 14015 14016     9 
14009 14012 14015 14017     9 
14009 14012 14015 14018     9 
14013 14012 14015 14016     9 
14013 14012 14015 14017     9 
14013 14012 14015 14018     9 
14014 14012 14015 14016     9 
14014 14012 14015 14017     9 
14014 14012 14015 14018     9 
14012 14015 14018 14019     9 
14012 14015 14018 14020     9 
14012 14015 14018 14021     9 
14016 14015 14018 14019     9 
14016 14015 14018 14020     9 
14016 14015 14018 14021     9 
14017 14015 14018 14019     9 
14017 14015 14018 14020     9 
14017 14015 14018 14021     9 
14015 14018 14021 14022     9 
14015 14018 14021 14023     9 
14015 14018 14021 14024     9 
14019 14018 14021 14022     9 
14019 14018 14021 14023     9 
14019 14018 14021 14024     9 
14020 14018 14021 14022     9 
14020 14018 14021 14023     9 
14020 14018 14021 14024     9 
14018 14021 14024 14025     9 
14018 14021 14024 14026     9 
14018 14021 14024 14027     9 
14022 14021 14024 14025     9 
14022 14021 14024 14026     9 
14022 14021 14024 14027     9 
14023 14021 14024 14025     9 
14023 14021 14024 14026     9 
14023 14021 14024 14027     9 
13978 14028 14031 14032     9 
13978 14028 14031 14033     9 
13978 14028 14031 14034     9 
14029 14028 14031 14032     9 
14029 14028 14031 14033     9 
14029 14028 14031 14034     9 
14030 14028 14031 14032     9 
14030 14028 14031 14033     9 
14030 14028 14031 14034     9 
14028 14031 14034 14035     9 
14028 14031 14034 14036     9 
14028 14031 14034 14037     9 
14032 14031 14034 14035     9 
14032 14031 14034 14036     9 
14032 14031 14034 14037     9 
14033 14031 14034 14035     9 
14033 14031 14034 14036     9 
14033 14031 14034 14037     9 
14031 14034 14037 14038     9 
14031 14034 14037 14039     9 
14031 14034 14037 14040     9 
14035 14034 14037 14038     9 
14035 14034 14037 14039     9 
14035 14034 14037 14040     9 
14036 14034 14037 14038     9 
14036 14034 14037 14039     9 
14036 14034 14037 14040     9 
14034 14037 14040 14041     9 
14034 14037 14040 14042     9 
14034 14037 14040 14043     9 
14038 14037 14040 14041     9 
14038 14037 14040 14042     9 
14038 14037 14040 14043     9 
14039 14037 14040 14041     9 
14039 14037 14040 14042     9 
14039 14037 14040 14043     9 
14037 14040 14043 14044     9 
14037 14040 14043 14045     9 
14037 14040 14043 14046     9 
14041 14040 14043 14044     9 
14041 14040 14043 14045     9 
14041 14040 14043 14046     9 
14042 14040 14043 14044     9 
14042 14040 14043 14045     9 
14042 14040 14043 14046     9 
14040 14043 14046 14047     9 
14040 14043 14046 14048     9 
14040 14043 14046 14049     9 
14044 14043 14046 14047     9 
14044 14043 14046 14048     9 
14044 14043 14046 14049     9 
14045 14043 14046 14047     9 
14045 14043 14046 14048     9 
14045 14043 14046 14049     9 
14043 14046 14049 14050     9 
14043 14046 14049 14051     9 
14043 14046 14049 14052     9 
14047 14046 14049 14050     9 
14047 14046 14049 14051     9 
14047 14046 14049 14052     9 
14048 14046 14049 14050     9 
14048 14046 14049 14051     9 
14048 14046 14049 14052     9 
14046 14049 14052 14053     9 
14046 14049 14052 14054     9 
14046 14049 14052 14055     9 
14050 14049 14052 14053     9 
14050 14049 14052 14054     9 
14050 14049 14052 14055     9 
14051 14049 14052 14053     9 
14051 14049 14052 14054     9 
14051 14049 14052 14055     9 
14049 14052 14055 14056     9 
14049 14052 14055 14057     9 
14049 14052 14055 14058     9 
14053 14052 14055 14056     9 
14053 14052 14055 14057     9 
14053 14052 14055 14058     9 
14054 14052 14055 14056     9 
14054 14052 14055 14057     9 
14054 14052 14055 14058     9 
14052 14055 14058 14059     9 
14052 14055 14058 14060     9 
14052 14055 14058 14061     9 
14056 14055 14058 14059     9 
14056 14055 14058 14060     9 
14056 14055 14058 14061     9 
14057 14055 14058 14059     9 
14057 14055 14058 14060     9 
14057 14055 14058 14061     9 
14055 14058 14061 14062     9 
14055 14058 14061 14063     9 
14055 14058 14061 14064     9 
14059 14058 14061 14062     9 
14059 14058 14061 14063     9 
14059 14058 14061 14064     9 
14060 14058 14061 14062     9 
14060 14058 14061 14063     9 
14060 14058 14061 14064     9 
14058 14061 14064 14065     9 
14058 14061 14064 14066     9 
14058 14061 14064 14067     9 
14062 14061 14064 14065     9 
14062 14061 14064 14066     9 
14062 14061 14064 14067     9 
14063 14061 14064 14065     9 
14063 14061 14064 14066     9 
14063 14061 14064 14067     9 
14061 14064 14067 14068     9 
14061 14064 14067 14069     9 
14061 14064 14067 14070     9 
14065 14064 14067 14068     9 
14065 14064 14067 14069     9 
14065 14064 14067 14070     9 
14066 14064 14067 14068     9 
14066 14064 14067 14069     9 
14066 14064 14067 14070     9 
14075 14071 14072 14073     9 
14075 14071 14072 14074     9 
14075 14071 14072 14087     9 
14079 14071 14072 14073     9 
14079 14071 14072 14074     9 
14079 14071 14072 14087     9 
14083 14071 14072 14073     9 
14083 14071 14072 14074     9 
14083 14071 14072 14087     9 
14072 14071 14075 14076     9 
14072 14071 14075 14077     9 
14072 14071 14075 14078     9 
14079 14071 14075 14076     9 
14079 14071 14075 14077     9 
14079 14071 14075 14078     9 
14083 14071 14075 14076     9 
14083 14071 14075 14077     9 
14083 14071 14075 14078     9 
14072 14071 14079 14080     9 
14072 14071 14079 14081     9 
14072 14071 14079 14082     9 
14075 14071 14079 14080     9 
14075 14071 14079 14081     9 
14075 14071 14079 14082     9 
14083 14071 14079 14080     9 
14083 14071 14079 14081     9 
14083 14071 14079 14082     9 
14072 14071 14083 14084     9 
14072 14071 14083 14085     9 
14072 14071 14083 14086     9 
14075 14071 14083 14084     9 
14075 14071 14083 14085     9 
14075 14071 14083 14086     9 
14079 14071 14083 14084     9 
14079 14071 14083 14085     9 
14079 14071 14083 14086     9 
14071 14072 14087 14088     9 
14071 14072 14087 14089     9 
14071 14072 14087 14093     9 
14073 14072 14087 14088     9 
14073 14072 14087 14089     9 
14073 14072 14087 14093     9 
14074 14072 14087 14088     9 
14074 14072 14087 14089     9 
14074 14072 14087 14093     9 
14072 14087 14093 14090     9 
14088 14087 14093 14090     9 
14089 14087 14093 14090     9 
14091 14090 14093 14087     9 
14092 14090 14093 14087     9 
14094 14090 14093 14087     9 
14091 14090 14094 14095     9 
14092 14090 14094 14095     9 
14093 14090 14094 14095     9 
14090 14094 14095 14096     9 
14090 14094 14095 14097     9 
14090 14094 14095 14098     9 
14094 14095 14098 14099     9 
14094 14095 14098 14100     9 
14094 14095 14098 14106     9 
14096 14095 14098 14099     9 
14096 14095 14098 14100     9 
14096 14095 14098 14106     9 
14097 14095 14098 14099     9 
14097 14095 14098 14100     9 
14097 14095 14098 14106     9 
14095 14098 14100 14101     9 
14099 14098 14100 14101     9 
14106 14098 14100 14101     9 
14095 14098 14106 14107     9 
14095 14098 14106 14108     9 
14095 14098 14106 14109     9 
14099 14098 14106 14107     9 
14099 14098 14106 14108     9 
14099 14098 14106 14109     9 
14100 14098 14106 14107     9 
14100 14098 14106 14108     9 
14100 14098 14106 14109     9 
14098 14100 14101 14102     9 
14098 14100 14101 14103     9 
14100 14101 14103 14104     9 
14100 14101 14103 14105     9 
14100 14101 14103 14115     9 
14102 14101 14103 14104     9 
14102 14101 14103 14105     9 
14102 14101 14103 14115     9 
14101 14103 14115 14116     9 
14101 14103 14115 14117     9 
14101 14103 14115 14118     9 
14104 14103 14115 14116     9 
14104 14103 14115 14117     9 
14104 14103 14115 14118     9 
14105 14103 14115 14116     9 
14105 14103 14115 14117     9 
14105 14103 14115 14118     9 
14098 14106 14109 14110     9 
14107 14106 14109 14110     9 
14108 14106 14109 14110     9 
14106 14109 14110 14111     9 
14106 14109 14110 14112     9 
14109 14110 14112 14113     9 
14109 14110 14112 14114     9 
14109 14110 14112 14162     9 
14111 14110 14112 14113     9 
14111 14110 14112 14114     9 
14111 14110 14112 14162     9 
14110 14112 14162 14163     9 
14110 14112 14162 14164     9 
14110 14112 14162 14165     9 
14113 14112 14162 14163     9 
14113 14112 14162 14164     9 
14113 14112 14162 14165     9 
14114 14112 14162 14163     9 
14114 14112 14162 14164     9 
14114 14112 14162 14165     9 
14103 14115 14118 14119     9 
14103 14115 14118 14120     9 
14103 14115 14118 14121     9 
14116 14115 14118 14119     9 
14116 14115 14118 14120     9 
14116 14115 14118 14121     9 
14117 14115 14118 14119     9 
14117 14115 14118 14120     9 
14117 14115 14118 14121     9 
14115 14118 14121 14122     9 
14115 14118 14121 14123     9 
14115 14118 14121 14124     9 
14119 14118 14121 14122     9 
14119 14118 14121 14123     9 
14119 14118 14121 14124     9 
14120 14118 14121 14122     9 
14120 14118 14121 14123     9 
14120 14118 14121 14124     9 
14118 14121 14124 14125     9 
14118 14121 14124 14126     9 
14118 14121 14124 14127     9 
14122 14121 14124 14125     9 
14122 14121 14124 14126     9 
14122 14121 14124 14127     9 
14123 14121 14124 14125     9 
14123 14121 14124 14126     9 
14123 14121 14124 14127     9 
14121 14124 14127 14128     9 
14121 14124 14127 14129     9 
14121 14124 14127 14130     9 
14125 14124 14127 14128     9 
14125 14124 14127 14129     9 
14125 14124 14127 14130     9 
14126 14124 14127 14128     9 
14126 14124 14127 14129     9 
14126 14124 14127 14130     9 
14124 14127 14130 14131     9 
14124 14127 14130 14132     9 
14124 14127 14130 14133     9 
14128 14127 14130 14131     9 
14128 14127 14130 14132     9 
14128 14127 14130 14133     9 
14129 14127 14130 14131     9 
14129 14127 14130 14132     9 
14129 14127 14130 14133     9 
14127 14130 14133 14134     9 
14127 14130 14133 14135     9 
14131 14130 14133 14134     9 
14131 14130 14133 14135     9 
14132 14130 14133 14134     9 
14132 14130 14133 14135     9 
14130 14133 14135 14136     9 
14130 14133 14135 14137     9 
14134 14133 14135 14136     9 
14134 14133 14135 14137     9 
14133 14135 14137 14138     9 
14133 14135 14137 14139     9 
14133 14135 14137 14140     9 
14136 14135 14137 14138     9 
14136 14135 14137 14139     9 
14136 14135 14137 14140     9 
14135 14137 14140 14141     9 
14135 14137 14140 14142     9 
14135 14137 14140 14143     9 
14138 14137 14140 14141     9 
14138 14137 14140 14142     9 
14138 14137 14140 14143     9 
14139 14137 14140 14141     9 
14139 14137 14140 14142     9 
14139 14137 14140 14143     9 
14137 14140 14143 14144     9 
14137 14140 14143 14145     9 
14137 14140 14143 14146     9 
14141 14140 14143 14144     9 
14141 14140 14143 14145     9 
14141 14140 14143 14146     9 
14142 14140 14143 14144     9 
14142 14140 14143 14145     9 
14142 14140 14143 14146     9 
14140 14143 14146 14147     9 
14140 14143 14146 14148     9 
14140 14143 14146 14149     9 
14144 14143 14146 14147     9 
14144 14143 14146 14148     9 
14144 14143 14146 14149     9 
14145 14143 14146 14147     9 
14145 14143 14146 14148     9 
14145 14143 14146 14149     9 
14143 14146 14149 14150     9 
14143 14146 14149 14151     9 
14143 14146 14149 14152     9 
14147 14146 14149 14150     9 
14147 14146 14149 14151     9 
14147 14146 14149 14152     9 
14148 14146 14149 14150     9 
14148 14146 14149 14151     9 
14148 14146 14149 14152     9 
14146 14149 14152 14153     9 
14146 14149 14152 14154     9 
14146 14149 14152 14155     9 
14150 14149 14152 14153     9 
14150 14149 14152 14154     9 
14150 14149 14152 14155     9 
14151 14149 14152 14153     9 
14151 14149 14152 14154     9 
14151 14149 14152 14155     9 
14149 14152 14155 14156     9 
14149 14152 14155 14157     9 
14149 14152 14155 14158     9 
14153 14152 14155 14156     9 
14153 14152 14155 14157     9 
14153 14152 14155 14158     9 
14154 14152 14155 14156     9 
14154 14152 14155 14157     9 
14154 14152 14155 14158     9 
14152 14155 14158 14159     9 
14152 14155 14158 14160     9 
14152 14155 14158 14161     9 
14156 14155 14158 14159     9 
14156 14155 14158 14160     9 
14156 14155 14158 14161     9 
14157 14155 14158 14159     9 
14157 14155 14158 14160     9 
14157 14155 14158 14161     9 
14112 14162 14165 14166     9 
14112 14162 14165 14167     9 
14112 14162 14165 14168     9 
14163 14162 14165 14166     9 
14163 14162 14165 14167     9 
14163 14162 14165 14168     9 
14164 14162 14165 14166     9 
14164 14162 14165 14167     9 
14164 14162 14165 14168     9 
14162 14165 14168 14169     9 
14162 14165 14168 14170     9 
14162 14165 14168 14171     9 
14166 14165 14168 14169     9 
14166 14165 14168 14170     9 
14166 14165 14168 14171     9 
14167 14165 14168 14169     9 
14167 14165 14168 14170     9 
14167 14165 14168 14171     9 
14165 14168 14171 14172     9 
14165 14168 14171 14173     9 
14165 14168 14171 14174     9 
14169 14168 14171 14172     9 
14169 14168 14171 14173     9 
14169 14168 14171 14174     9 
14170 14168 14171 14172     9 
14170 14168 14171 14173     9 
14170 14168 14171 14174     9 
14168 14171 14174 14175     9 
14168 14171 14174 14176     9 
14168 14171 14174 14177     9 
14172 14171 14174 14175     9 
14172 14171 14174 14176     9 
14172 14171 14174 14177     9 
14173 14171 14174 14175     9 
14173 14171 14174 14176     9 
14173 14171 14174 14177     9 
14171 14174 14177 14178     9 
14171 14174 14177 14179     9 
14171 14174 14177 14180     9 
14175 14174 14177 14178     9 
14175 14174 14177 14179     9 
14175 14174 14177 14180     9 
14176 14174 14177 14178     9 
14176 14174 14177 14179     9 
14176 14174 14177 14180     9 
14174 14177 14180 14181     9 
14174 14177 14180 14182     9 
14174 14177 14180 14183     9 
14178 14177 14180 14181     9 
14178 14177 14180 14182     9 
14178 14177 14180 14183     9 
14179 14177 14180 14181     9 
14179 14177 14180 14182     9 
14179 14177 14180 14183     9 
14177 14180 14183 14184     9 
14177 14180 14183 14185     9 
14177 14180 14183 14186     9 
14181 14180 14183 14184     9 
14181 14180 14183 14185     9 
14181 14180 14183 14186     9 
14182 14180 14183 14184     9 
14182 14180 14183 14185     9 
14182 14180 14183 14186     9 
14180 14183 14186 14187     9 
14180 14183 14186 14188     9 
14180 14183 14186 14189     9 
14184 14183 14186 14187     9 
14184 14183 14186 14188     9 
14184 14183 14186 14189     9 
14185 14183 14186 14187     9 
14185 14183 14186 14188     9 
14185 14183 14186 14189     9 
14183 14186 14189 14190     9 
14183 14186 14189 14191     9 
14183 14186 14189 14192     9 
14187 14186 14189 14190     9 
14187 14186 14189 14191     9 
14187 14186 14189 14192     9 
14188 14186 14189 14190     9 
14188 14186 14189 14191     9 
14188 14186 14189 14192     9 
14186 14189 14192 14193     9 
14186 14189 14192 14194     9 
14186 14189 14192 14195     9 
14190 14189 14192 14193     9 
14190 14189 14192 14194     9 
14190 14189 14192 14195     9 
14191 14189 14192 14193     9 
14191 14189 14192 14194     9 
14191 14189 14192 14195     9 
14189 14192 14195 14196     9 
14189 14192 14195 14197     9 
14189 14192 14195 14198     9 
14193 14192 14195 14196     9 
14193 14192 14195 14197     9 
14193 14192 14195 14198     9 
14194 14192 14195 14196     9 
14194 14192 14195 14197     9 
14194 14192 14195 14198     9 
14192 14195 14198 14199     9 
14192 14195 14198 14200     9 
14192 14195 14198 14201     9 
14196 14195 14198 14199     9 
14196 14195 14198 14200     9 
14196 14195 14198 14201     9 
14197 14195 14198 14199     9 
14197 14195 14198 14200     9 
14197 14195 14198 14201     9 
14195 14198 14201 14202     9 
14195 14198 14201 14203     9 
14195 14198 14201 14204     9 
14199 14198 14201 14202     9 
14199 14198 14201 14203     9 
14199 14198 14201 14204     9 
14200 14198 14201 14202     9 
14200 14198 14201 14203     9 
14200 14198 14201 14204     9 
14209 14205 14206 14207     9 
14209 14205 14206 14208     9 
14209 14205 14206 14221     9 
14213 14205 14206 14207     9 
14213 14205 14206 14208     9 
14213 14205 14206 14221     9 
14217 14205 14206 14207     9 
14217 14205 14206 14208     9 
14217 14205 14206 14221     9 
14206 14205 14209 14210     9 
14206 14205 14209 14211     9 
14206 14205 14209 14212     9 
14213 14205 14209 14210     9 
14213 14205 14209 14211     9 
14213 14205 14209 14212     9 
14217 14205 14209 14210     9 
14217 14205 14209 14211     9 
14217 14205 14209 14212     9 
14206 14205 14213 14214     9 
14206 14205 14213 14215     9 
14206 14205 14213 14216     9 
14209 14205 14213 14214     9 
14209 14205 14213 14215     9 
14209 14205 14213 14216     9 
14217 14205 14213 14214     9 
14217 14205 14213 14215     9 
14217 14205 14213 14216     9 
14206 14205 14217 14218     9 
14206 14205 14217 14219     9 
14206 14205 14217 14220     9 
14209 14205 14217 14218     9 
14209 14205 14217 14219     9 
14209 14205 14217 14220     9 
14213 14205 14217 14218     9 
14213 14205 14217 14219     9 
14213 14205 14217 14220     9 
14205 14206 14221 14222     9 
14205 14206 14221 14223     9 
14205 14206 14221 14227     9 
14207 14206 14221 14222     9 
14207 14206 14221 14223     9 
14207 14206 14221 14227     9 
14208 14206 14221 14222     9 
14208 14206 14221 14223     9 
14208 14206 14221 14227     9 
14206 14221 14227 14224     9 
14222 14221 14227 14224     9 
14223 14221 14227 14224     9 
14225 14224 14227 14221     9 
14226 14224 14227 14221     9 
14228 14224 14227 14221     9 
14225 14224 14228 14229     9 
14226 14224 14228 14229     9 
14227 14224 14228 14229     9 
14224 14228 14229 14230     9 
14224 14228 14229 14231     9 
14224 14228 14229 14232     9 
14228 14229 14232 14233     9 
14228 14229 14232 14234     9 
14228 14229 14232 14240     9 
14230 14229 14232 14233     9 
14230 14229 14232 14234     9 
14230 14229 14232 14240     9 
14231 14229 14232 14233     9 
14231 14229 14232 14234     9 
14231 14229 14232 14240     9 
14229 14232 14234 14235     9 
14233 14232 14234 14235     9 
14240 14232 14234 14235     9 
14229 14232 14240 14241     9 
14229 14232 14240 14242     9 
14229 14232 14240 14243     9 
14233 14232 14240 14241     9 
14233 14232 14240 14242     9 
14233 14232 14240 14243     9 
14234 14232 14240 14241     9 
14234 14232 14240 14242     9 
14234 14232 14240 14243     9 
14232 14234 14235 14236     9 
14232 14234 14235 14237     9 
14234 14235 14237 14238     9 
14234 14235 14237 14239     9 
14234 14235 14237 14249     9 
14236 14235 14237 14238     9 
14236 14235 14237 14239     9 
14236 14235 14237 14249     9 
14235 14237 14249 14250     9 
14235 14237 14249 14251     9 
14235 14237 14249 14252     9 
14238 14237 14249 14250     9 
14238 14237 14249 14251     9 
14238 14237 14249 14252     9 
14239 14237 14249 14250     9 
14239 14237 14249 14251     9 
14239 14237 14249 14252     9 
14232 14240 14243 14244     9 
14241 14240 14243 14244     9 
14242 14240 14243 14244     9 
14240 14243 14244 14245     9 
14240 14243 14244 14246     9 
14243 14244 14246 14247     9 
14243 14244 14246 14248     9 
14243 14244 14246 14296     9 
14245 14244 14246 14247     9 
14245 14244 14246 14248     9 
14245 14244 14246 14296     9 
14244 14246 14296 14297     9 
14244 14246 14296 14298     9 
14244 14246 14296 14299     9 
14247 14246 14296 14297     9 
14247 14246 14296 14298     9 
14247 14246 14296 14299     9 
14248 14246 14296 14297     9 
14248 14246 14296 14298     9 
14248 14246 14296 14299     9 
14237 14249 14252 14253     9 
14237 14249 14252 14254     9 
14237 14249 14252 14255     9 
14250 14249 14252 14253     9 
14250 14249 14252 14254     9 
14250 14249 14252 14255     9 
14251 14249 14252 14253     9 
14251 14249 14252 14254     9 
14251 14249 14252 14255     9 
14249 14252 14255 14256     9 
14249 14252 14255 14257     9 
14249 14252 14255 14258     9 
14253 14252 14255 14256     9 
14253 14252 14255 14257     9 
14253 14252 14255 14258     9 
14254 14252 14255 14256     9 
14254 14252 14255 14257     9 
14254 14252 14255 14258     9 
14252 14255 14258 14259     9 
14252 14255 14258 14260     9 
14252 14255 14258 14261     9 
14256 14255 14258 14259     9 
14256 14255 14258 14260     9 
14256 14255 14258 14261     9 
14257 14255 14258 14259     9 
14257 14255 14258 14260     9 
14257 14255 14258 14261     9 
14255 14258 14261 14262     9 
14255 14258 14261 14263     9 
14255 14258 14261 14264     9 
14259 14258 14261 14262     9 
14259 14258 14261 14263     9 
14259 14258 14261 14264     9 
14260 14258 14261 14262     9 
14260 14258 14261 14263     9 
14260 14258 14261 14264     9 
14258 14261 14264 14265     9 
14258 14261 14264 14266     9 
14258 14261 14264 14267     9 
14262 14261 14264 14265     9 
14262 14261 14264 14266     9 
14262 14261 14264 14267     9 
14263 14261 14264 14265     9 
14263 14261 14264 14266     9 
14263 14261 14264 14267     9 
14261 14264 14267 14268     9 
14261 14264 14267 14269     9 
14265 14264 14267 14268     9 
14265 14264 14267 14269     9 
14266 14264 14267 14268     9 
14266 14264 14267 14269     9 
14264 14267 14269 14270     9 
14264 14267 14269 14271     9 
14268 14267 14269 14270     9 
14268 14267 14269 14271     9 
14267 14269 14271 14272     9 
14267 14269 14271 14273     9 
14267 14269 14271 14274     9 
14270 14269 14271 14272     9 
14270 14269 14271 14273     9 
14270 14269 14271 14274     9 
14269 14271 14274 14275     9 
14269 14271 14274 14276     9 
14269 14271 14274 14277     9 
14272 14271 14274 14275     9 
14272 14271 14274 14276     9 
14272 14271 14274 14277     9 
14273 14271 14274 14275     9 
14273 14271 14274 14276     9 
14273 14271 14274 14277     9 
14271 14274 14277 14278     9 
14271 14274 14277 14279     9 
14271 14274 14277 14280     9 
14275 14274 14277 14278     9 
14275 14274 14277 14279     9 
14275 14274 14277 14280     9 
14276 14274 14277 14278     9 
14276 14274 14277 14279     9 
14276 14274 14277 14280     9 
14274 14277 14280 14281     9 
14274 14277 14280 14282     9 
14274 14277 14280 14283     9 
14278 14277 14280 14281     9 
14278 14277 14280 14282     9 
14278 14277 14280 14283     9 
14279 14277 14280 14281     9 
14279 14277 14280 14282     9 
14279 14277 14280 14283     9 
14277 14280 14283 14284     9 
14277 14280 14283 14285     9 
14277 14280 14283 14286     9 
14281 14280 14283 14284     9 
14281 14280 14283 14285     9 
14281 14280 14283 14286     9 
14282 14280 14283 14284     9 
14282 14280 14283 14285     9 
14282 14280 14283 14286     9 
14280 14283 14286 14287     9 
14280 14283 14286 14288     9 
14280 14283 14286 14289     9 
14284 14283 14286 14287     9 
14284 14283 14286 14288     9 
14284 14283 14286 14289     9 
14285 14283 14286 14287     9 
14285 14283 14286 14288     9 
14285 14283 14286 14289     9 
14283 14286 14289 14290     9 
14283 14286 14289 14291     9 
14283 14286 14289 14292     9 
14287 14286 14289 14290     9 
14287 14286 14289 14291     9 
14287 14286 14289 14292     9 
14288 14286 14289 14290     9 
14288 14286 14289 14291     9 
14288 14286 14289 14292     9 
14286 14289 14292 14293     9 
14286 14289 14292 14294     9 
14286 14289 14292 14295     9 
14290 14289 14292 14293     9 
14290 14289 14292 14294     9 
14290 14289 14292 14295     9 
14291 14289 14292 14293     9 
14291 14289 14292 14294     9 
14291 14289 14292 14295     9 
14246 14296 14299 14300     9 
14246 14296 14299 14301     9 
14246 14296 14299 14302     9 
14297 14296 14299 14300     9 
14297 14296 14299 14301     9 
14297 14296 14299 14302     9 
14298 14296 14299 14300     9 
14298 14296 14299 14301     9 
14298 14296 14299 14302     9 
14296 14299 14302 14303     9 
14296 14299 14302 14304     9 
14296 14299 14302 14305     9 
14300 14299 14302 14303     9 
14300 14299 14302 14304     9 
14300 14299 14302 14305     9 
14301 14299 14302 14303     9 
14301 14299 14302 14304     9 
14301 14299 14302 14305     9 
14299 14302 14305 14306     9 
14299 14302 14305 14307     9 
14299 14302 14305 14308     9 
14303 14302 14305 14306     9 
14303 14302 14305 14307     9 
14303 14302 14305 14308     9 
14304 14302 14305 14306     9 
14304 14302 14305 14307     9 
14304 14302 14305 14308     9 
14302 14305 14308 14309     9 
14302 14305 14308 14310     9 
14302 14305 14308 14311     9 
14306 14305 14308 14309     9 
14306 14305 14308 14310     9 
14306 14305 14308 14311     9 
14307 14305 14308 14309     9 
14307 14305 14308 14310     9 
14307 14305 14308 14311     9 
14305 14308 14311 14312     9 
14305 14308 14311 14313     9 
14305 14308 14311 14314     9 
14309 14308 14311 14312     9 
14309 14308 14311 14313     9 
14309 14308 14311 14314     9 
14310 14308 14311 14312     9 
14310 14308 14311 14313     9 
14310 14308 14311 14314     9 
14308 14311 14314 14315     9 
14308 14311 14314 14316     9 
14308 14311 14314 14317     9 
14312 14311 14314 14315     9 
14312 14311 14314 14316     9 
14312 14311 14314 14317     9 
14313 14311 14314 14315     9 
14313 14311 14314 14316     9 
14313 14311 14314 14317     9 
14311 14314 14317 14318     9 
14311 14314 14317 14319     9 
14311 14314 14317 14320     9 
14315 14314 14317 14318     9 
14315 14314 14317 14319     9 
14315 14314 14317 14320     9 
14316 14314 14317 14318     9 
14316 14314 14317 14319     9 
14316 14314 14317 14320     9 
14314 14317 14320 14321     9 
14314 14317 14320 14322     9 
14314 14317 14320 14323     9 
14318 14317 14320 14321     9 
14318 14317 14320 14322     9 
14318 14317 14320 14323     9 
14319 14317 14320 14321     9 
14319 14317 14320 14322     9 
14319 14317 14320 14323     9 
14317 14320 14323 14324     9 
14317 14320 14323 14325     9 
14317 14320 14323 14326     9 
14321 14320 14323 14324     9 
14321 14320 14323 14325     9 
14321 14320 14323 14326     9 
14322 14320 14323 14324     9 
14322 14320 14323 14325     9 
14322 14320 14323 14326     9 
14320 14323 14326 14327     9 
14320 14323 14326 14328     9 
14320 14323 14326 14329     9 
14324 14323 14326 14327     9 
14324 14323 14326 14328     9 
14324 14323 14326 14329     9 
14325 14323 14326 14327     9 
14325 14323 14326 14328     9 
14325 14323 14326 14329     9 
14323 14326 14329 14330     9 
14323 14326 14329 14331     9 
14323 14326 14329 14332     9 
14327 14326 14329 14330     9 
14327 14326 14329 14331     9 
14327 14326 14329 14332     9 
14328 14326 14329 14330     9 
14328 14326 14329 14331     9 
14328 14326 14329 14332     9 
14326 14329 14332 14333     9 
14326 14329 14332 14334     9 
14326 14329 14332 14335     9 
14330 14329 14332 14333     9 
14330 14329 14332 14334     9 
14330 14329 14332 14335     9 
14331 14329 14332 14333     9 
14331 14329 14332 14334     9 
14331 14329 14332 14335     9 
14329 14332 14335 14336     9 
14329 14332 14335 14337     9 
14329 14332 14335 14338     9 
14333 14332 14335 14336     9 
14333 14332 14335 14337     9 
14333 14332 14335 14338     9 
14334 14332 14335 14336     9 
14334 14332 14335 14337     9 
14334 14332 14335 14338     9 
14343 14339 14340 14341     9 
14343 14339 14340 14342     9 
14343 14339 14340 14355     9 
14347 14339 14340 14341     9 
14347 14339 14340 14342     9 
14347 14339 14340 14355     9 
14351 14339 14340 14341     9 
14351 14339 14340 14342     9 
14351 14339 14340 14355     9 
14340 14339 14343 14344     9 
14340 14339 14343 14345     9 
14340 14339 14343 14346     9 
14347 14339 14343 14344     9 
14347 14339 14343 14345     9 
14347 14339 14343 14346     9 
14351 14339 14343 14344     9 
14351 14339 14343 14345     9 
14351 14339 14343 14346     9 
14340 14339 14347 14348     9 
14340 14339 14347 14349     9 
14340 14339 14347 14350     9 
14343 14339 14347 14348     9 
14343 14339 14347 14349     9 
14343 14339 14347 14350     9 
14351 14339 14347 14348     9 
14351 14339 14347 14349     9 
14351 14339 14347 14350     9 
14340 14339 14351 14352     9 
14340 14339 14351 14353     9 
14340 14339 14351 14354     9 
14343 14339 14351 14352     9 
14343 14339 14351 14353     9 
14343 14339 14351 14354     9 
14347 14339 14351 14352     9 
14347 14339 14351 14353     9 
14347 14339 14351 14354     9 
14339 14340 14355 14356     9 
14339 14340 14355 14357     9 
14339 14340 14355 14361     9 
14341 14340 14355 14356     9 
14341 14340 14355 14357     9 
14341 14340 14355 14361     9 
14342 14340 14355 14356     9 
14342 14340 14355 14357     9 
14342 14340 14355 14361     9 
14340 14355 14361 14358     9 
14356 14355 14361 14358     9 
14357 14355 14361 14358     9 
14359 14358 14361 14355     9 
14360 14358 14361 14355     9 
14362 14358 14361 14355     9 
14359 14358 14362 14363     9 
14360 14358 14362 14363     9 
14361 14358 14362 14363     9 
14358 14362 14363 14364     9 
14358 14362 14363 14365     9 
14358 14362 14363 14366     9 
14362 14363 14366 14367     9 
14362 14363 14366 14368     9 
14362 14363 14366 14374     9 
14364 14363 14366 14367     9 
14364 14363 14366 14368     9 
14364 14363 14366 14374     9 
14365 14363 14366 14367     9 
14365 14363 14366 14368     9 
14365 14363 14366 14374     9 
14363 14366 14368 14369     9 
14367 14366 14368 14369     9 
14374 14366 14368 14369     9 
14363 14366 14374 14375     9 
14363 14366 14374 14376     9 
14363 14366 14374 14377     9 
14367 14366 14374 14375     9 
14367 14366 14374 14376     9 
14367 14366 14374 14377     9 
14368 14366 14374 14375     9 
14368 14366 14374 14376     9 
14368 14366 14374 14377     9 
14366 14368 14369 14370     9 
14366 14368 14369 14371     9 
14368 14369 14371 14372     9 
14368 14369 14371 14373     9 
14368 14369 14371 14383     9 
14370 14369 14371 14372     9 
14370 14369 14371 14373     9 
14370 14369 14371 14383     9 
14369 14371 14383 14384     9 
14369 14371 14383 14385     9 
14369 14371 14383 14386     9 
14372 14371 14383 14384     9 
14372 14371 14383 14385     9 
14372 14371 14383 14386     9 
14373 14371 14383 14384     9 
14373 14371 14383 14385     9 
14373 14371 14383 14386     9 
14366 14374 14377 14378     9 
14375 14374 14377 14378     9 
14376 14374 14377 14378     9 
14374 14377 14378 14379     9 
14374 14377 14378 14380     9 
14377 14378 14380 14381     9 
14377 14378 14380 14382     9 
14377 14378 14380 14430     9 
14379 14378 14380 14381     9 
14379 14378 14380 14382     9 
14379 14378 14380 14430     9 
14378 14380 14430 14431     9 
14378 14380 14430 14432     9 
14378 14380 14430 14433     9 
14381 14380 14430 14431     9 
14381 14380 14430 14432     9 
14381 14380 14430 14433     9 
14382 14380 14430 14431     9 
14382 14380 14430 14432     9 
14382 14380 14430 14433     9 
14371 14383 14386 14387     9 
14371 14383 14386 14388     9 
14371 14383 14386 14389     9 
14384 14383 14386 14387     9 
14384 14383 14386 14388     9 
14384 14383 14386 14389     9 
14385 14383 14386 14387     9 
14385 14383 14386 14388     9 
14385 14383 14386 14389     9 
14383 14386 14389 14390     9 
14383 14386 14389 14391     9 
14383 14386 14389 14392     9 
14387 14386 14389 14390     9 
14387 14386 14389 14391     9 
14387 14386 14389 14392     9 
14388 14386 14389 14390     9 
14388 14386 14389 14391     9 
14388 14386 14389 14392     9 
14386 14389 14392 14393     9 
14386 14389 14392 14394     9 
14386 14389 14392 14395     9 
14390 14389 14392 14393     9 
14390 14389 14392 14394     9 
14390 14389 14392 14395     9 
14391 14389 14392 14393     9 
14391 14389 14392 14394     9 
14391 14389 14392 14395     9 
14389 14392 14395 14396     9 
14389 14392 14395 14397     9 
14389 14392 14395 14398     9 
14393 14392 14395 14396     9 
14393 14392 14395 14397     9 
14393 14392 14395 14398     9 
14394 14392 14395 14396     9 
14394 14392 14395 14397     9 
14394 14392 14395 14398     9 
14392 14395 14398 14399     9 
14392 14395 14398 14400     9 
14392 14395 14398 14401     9 
14396 14395 14398 14399     9 
14396 14395 14398 14400     9 
14396 14395 14398 14401     9 
14397 14395 14398 14399     9 
14397 14395 14398 14400     9 
14397 14395 14398 14401     9 
14395 14398 14401 14402     9 
14395 14398 14401 14403     9 
14399 14398 14401 14402     9 
14399 14398 14401 14403     9 
14400 14398 14401 14402     9 
14400 14398 14401 14403     9 
14398 14401 14403 14404     9 
14398 14401 14403 14405     9 
14402 14401 14403 14404     9 
14402 14401 14403 14405     9 
14401 14403 14405 14406     9 
14401 14403 14405 14407     9 
14401 14403 14405 14408     9 
14404 14403 14405 14406     9 
14404 14403 14405 14407     9 
14404 14403 14405 14408     9 
14403 14405 14408 14409     9 
14403 14405 14408 14410     9 
14403 14405 14408 14411     9 
14406 14405 14408 14409     9 
14406 14405 14408 14410     9 
14406 14405 14408 14411     9 
14407 14405 14408 14409     9 
14407 14405 14408 14410     9 
14407 14405 14408 14411     9 
14405 14408 14411 14412     9 
14405 14408 14411 14413     9 
14405 14408 14411 14414     9 
14409 14408 14411 14412     9 
14409 14408 14411 14413     9 
14409 14408 14411 14414     9 
14410 14408 14411 14412     9 
14410 14408 14411 14413     9 
14410 14408 14411 14414     9 
14408 14411 14414 14415     9 
14408 14411 14414 14416     9 
14408 14411 14414 14417     9 
14412 14411 14414 14415     9 
14412 14411 14414 14416     9 
14412 14411 14414 14417     9 
14413 14411 14414 14415     9 
14413 14411 14414 14416     9 
14413 14411 14414 14417     9 
14411 14414 14417 14418     9 
14411 14414 14417 14419     9 
14411 14414 14417 14420     9 
14415 14414 14417 14418     9 
14415 14414 14417 14419     9 
14415 14414 14417 14420     9 
14416 14414 14417 14418     9 
14416 14414 14417 14419     9 
14416 14414 14417 14420     9 
14414 14417 14420 14421     9 
14414 14417 14420 14422     9 
14414 14417 14420 14423     9 
14418 14417 14420 14421     9 
14418 14417 14420 14422     9 
14418 14417 14420 14423     9 
14419 14417 14420 14421     9 
14419 14417 14420 14422     9 
14419 14417 14420 14423     9 
14417 14420 14423 14424     9 
14417 14420 14423 14425     9 
14417 14420 14423 14426     9 
14421 14420 14423 14424     9 
14421 14420 14423 14425     9 
14421 14420 14423 14426     9 
14422 14420 14423 14424     9 
14422 14420 14423 14425     9 
14422 14420 14423 14426     9 
14420 14423 14426 14427     9 
14420 14423 14426 14428     9 
14420 14423 14426 14429     9 
14424 14423 14426 14427     9 
14424 14423 14426 14428     9 
14424 14423 14426 14429     9 
14425 14423 14426 14427     9 
14425 14423 14426 14428     9 
14425 14423 14426 14429     9 
14380 14430 14433 14434     9 
14380 14430 14433 14435     9 
14380 14430 14433 14436     9 
14431 14430 14433 14434     9 
14431 14430 14433 14435     9 
14431 14430 14433 14436     9 
14432 14430 14433 14434     9 
14432 14430 14433 14435     9 
14432 14430 14433 14436     9 
14430 14433 14436 14437     9 
14430 14433 14436 14438     9 
14430 14433 14436 14439     9 
14434 14433 14436 14437     9 
14434 14433 14436 14438     9 
14434 14433 14436 14439     9 
14435 14433 14436 14437     9 
14435 14433 14436 14438     9 
14435 14433 14436 14439     9 
14433 14436 14439 14440     9 
14433 14436 14439 14441     9 
14433 14436 14439 14442     9 
14437 14436 14439 14440     9 
14437 14436 14439 14441     9 
14437 14436 14439 14442     9 
14438 14436 14439 14440     9 
14438 14436 14439 14441     9 
14438 14436 14439 14442     9 
14436 14439 14442 14443     9 
14436 14439 14442 14444     9 
14436 14439 14442 14445     9 
14440 14439 14442 14443     9 
14440 14439 14442 14444     9 
14440 14439 14442 14445     9 
14441 14439 14442 14443     9 
14441 14439 14442 14444     9 
14441 14439 14442 14445     9 
14439 14442 14445 14446     9 
14439 14442 14445 14447     9 
14439 14442 14445 14448     9 
14443 14442 14445 14446     9 
14443 14442 14445 14447     9 
14443 14442 14445 14448     9 
14444 14442 14445 14446     9 
14444 14442 14445 14447     9 
14444 14442 14445 14448     9 
14442 14445 14448 14449     9 
14442 14445 14448 14450     9 
14442 14445 14448 14451     9 
14446 14445 14448 14449     9 
14446 14445 14448 14450     9 
14446 14445 14448 14451     9 
14447 14445 14448 14449     9 
14447 14445 14448 14450     9 
14447 14445 14448 14451     9 
14445 14448 14451 14452     9 
14445 14448 14451 14453     9 
14445 14448 14451 14454     9 
14449 14448 14451 14452     9 
14449 14448 14451 14453     9 
14449 14448 14451 14454     9 
14450 14448 14451 14452     9 
14450 14448 14451 14453     9 
14450 14448 14451 14454     9 
14448 14451 14454 14455     9 
14448 14451 14454 14456     9 
14448 14451 14454 14457     9 
14452 14451 14454 14455     9 
14452 14451 14454 14456     9 
14452 14451 14454 14457     9 
14453 14451 14454 14455     9 
14453 14451 14454 14456     9 
14453 14451 14454 14457     9 
14451 14454 14457 14458     9 
14451 14454 14457 14459     9 
14451 14454 14457 14460     9 
14455 14454 14457 14458     9 
14455 14454 14457 14459     9 
14455 14454 14457 14460     9 
14456 14454 14457 14458     9 
14456 14454 14457 14459     9 
14456 14454 14457 14460     9 
14454 14457 14460 14461     9 
14454 14457 14460 14462     9 
14454 14457 14460 14463     9 
14458 14457 14460 14461     9 
14458 14457 14460 14462     9 
14458 14457 14460 14463     9 
14459 14457 14460 14461     9 
14459 14457 14460 14462     9 
14459 14457 14460 14463     9 
14457 14460 14463 14464     9 
14457 14460 14463 14465     9 
14457 14460 14463 14466     9 
14461 14460 14463 14464     9 
14461 14460 14463 14465     9 
14461 14460 14463 14466     9 
14462 14460 14463 14464     9 
14462 14460 14463 14465     9 
14462 14460 14463 14466     9 
14460 14463 14466 14467     9 
14460 14463 14466 14468     9 
14460 14463 14466 14469     9 
14464 14463 14466 14467     9 
14464 14463 14466 14468     9 
14464 14463 14466 14469     9 
14465 14463 14466 14467     9 
14465 14463 14466 14468     9 
14465 14463 14466 14469     9 
14463 14466 14469 14470     9 
14463 14466 14469 14471     9 
14463 14466 14469 14472     9 
14467 14466 14469 14470     9 
14467 14466 14469 14471     9 
14467 14466 14469 14472     9 
14468 14466 14469 14470     9 
14468 14466 14469 14471     9 
14468 14466 14469 14472     9 
14477 14473 14474 14475     9 
14477 14473 14474 14476     9 
14477 14473 14474 14489     9 
14481 14473 14474 14475     9 
14481 14473 14474 14476     9 
14481 14473 14474 14489     9 
14485 14473 14474 14475     9 
14485 14473 14474 14476     9 
14485 14473 14474 14489     9 
14474 14473 14477 14478     9 
14474 14473 14477 14479     9 
14474 14473 14477 14480     9 
14481 14473 14477 14478     9 
14481 14473 14477 14479     9 
14481 14473 14477 14480     9 
14485 14473 14477 14478     9 
14485 14473 14477 14479     9 
14485 14473 14477 14480     9 
14474 14473 14481 14482     9 
14474 14473 14481 14483     9 
14474 14473 14481 14484     9 
14477 14473 14481 14482     9 
14477 14473 14481 14483     9 
14477 14473 14481 14484     9 
14485 14473 14481 14482     9 
14485 14473 14481 14483     9 
14485 14473 14481 14484     9 
14474 14473 14485 14486     9 
14474 14473 14485 14487     9 
14474 14473 14485 14488     9 
14477 14473 14485 14486     9 
14477 14473 14485 14487     9 
14477 14473 14485 14488     9 
14481 14473 14485 14486     9 
14481 14473 14485 14487     9 
14481 14473 14485 14488     9 
14473 14474 14489 14490     9 
14473 14474 14489 14491     9 
14473 14474 14489 14495     9 
14475 14474 14489 14490     9 
14475 14474 14489 14491     9 
14475 14474 14489 14495     9 
14476 14474 14489 14490     9 
14476 14474 14489 14491     9 
14476 14474 14489 14495     9 
14474 14489 14495 14492     9 
14490 14489 14495 14492     9 
14491 14489 14495 14492     9 
14493 14492 14495 14489     9 
14494 14492 14495 14489     9 
14496 14492 14495 14489     9 
14493 14492 14496 14497     9 
14494 14492 14496 14497     9 
14495 14492 14496 14497     9 
14492 14496 14497 14498     9 
14492 14496 14497 14499     9 
14492 14496 14497 14500     9 
14496 14497 14500 14501     9 
14496 14497 14500 14502     9 
14496 14497 14500 14508     9 
14498 14497 14500 14501     9 
14498 14497 14500 14502     9 
14498 14497 14500 14508     9 
14499 14497 14500 14501     9 
14499 14497 14500 14502     9 
14499 14497 14500 14508     9 
14497 14500 14502 14503     9 
14501 14500 14502 14503     9 
14508 14500 14502 14503     9 
14497 14500 14508 14509     9 
14497 14500 14508 14510     9 
14497 14500 14508 14511     9 
14501 14500 14508 14509     9 
14501 14500 14508 14510     9 
14501 14500 14508 14511     9 
14502 14500 14508 14509     9 
14502 14500 14508 14510     9 
14502 14500 14508 14511     9 
14500 14502 14503 14504     9 
14500 14502 14503 14505     9 
14502 14503 14505 14506     9 
14502 14503 14505 14507     9 
14502 14503 14505 14517     9 
14504 14503 14505 14506     9 
14504 14503 14505 14507     9 
14504 14503 14505 14517     9 
14503 14505 14517 14518     9 
14503 14505 14517 14519     9 
14503 14505 14517 14520     9 
14506 14505 14517 14518     9 
14506 14505 14517 14519     9 
14506 14505 14517 14520     9 
14507 14505 14517 14518     9 
14507 14505 14517 14519     9 
14507 14505 14517 14520     9 
14500 14508 14511 14512     9 
14509 14508 14511 14512     9 
14510 14508 14511 14512     9 
14508 14511 14512 14513     9 
14508 14511 14512 14514     9 
14511 14512 14514 14515     9 
14511 14512 14514 14516     9 
14511 14512 14514 14564     9 
14513 14512 14514 14515     9 
14513 14512 14514 14516     9 
14513 14512 14514 14564     9 
14512 14514 14564 14565     9 
14512 14514 14564 14566     9 
14512 14514 14564 14567     9 
14515 14514 14564 14565     9 
14515 14514 14564 14566     9 
14515 14514 14564 14567     9 
14516 14514 14564 14565     9 
14516 14514 14564 14566     9 
14516 14514 14564 14567     9 
14505 14517 14520 14521     9 
14505 14517 14520 14522     9 
14505 14517 14520 14523     9 
14518 14517 14520 14521     9 
14518 14517 14520 14522     9 
14518 14517 14520 14523     9 
14519 14517 14520 14521     9 
14519 14517 14520 14522     9 
14519 14517 14520 14523     9 
14517 14520 14523 14524     9 
14517 14520 14523 14525     9 
14517 14520 14523 14526     9 
14521 14520 14523 14524     9 
14521 14520 14523 14525     9 
14521 14520 14523 14526     9 
14522 14520 14523 14524     9 
14522 14520 14523 14525     9 
14522 14520 14523 14526     9 
14520 14523 14526 14527     9 
14520 14523 14526 14528     9 
14520 14523 14526 14529     9 
14524 14523 14526 14527     9 
14524 14523 14526 14528     9 
14524 14523 14526 14529     9 
14525 14523 14526 14527     9 
14525 14523 14526 14528     9 
14525 14523 14526 14529     9 
14523 14526 14529 14530     9 
14523 14526 14529 14531     9 
14523 14526 14529 14532     9 
14527 14526 14529 14530     9 
14527 14526 14529 14531     9 
14527 14526 14529 14532     9 
14528 14526 14529 14530     9 
14528 14526 14529 14531     9 
14528 14526 14529 14532     9 
14526 14529 14532 14533     9 
14526 14529 14532 14534     9 
14526 14529 14532 14535     9 
14530 14529 14532 14533     9 
14530 14529 14532 14534     9 
14530 14529 14532 14535     9 
14531 14529 14532 14533     9 
14531 14529 14532 14534     9 
14531 14529 14532 14535     9 
14529 14532 14535 14536     9 
14529 14532 14535 14537     9 
14533 14532 14535 14536     9 
14533 14532 14535 14537     9 
14534 14532 14535 14536     9 
14534 14532 14535 14537     9 
14532 14535 14537 14538     9 
14532 14535 14537 14539     9 
14536 14535 14537 14538     9 
14536 14535 14537 14539     9 
14535 14537 14539 14540     9 
14535 14537 14539 14541     9 
14535 14537 14539 14542     9 
14538 14537 14539 14540     9 
14538 14537 14539 14541     9 
14538 14537 14539 14542     9 
14537 14539 14542 14543     9 
14537 14539 14542 14544     9 
14537 14539 14542 14545     9 
14540 14539 14542 14543     9 
14540 14539 14542 14544     9 
14540 14539 14542 14545     9 
14541 14539 14542 14543     9 
14541 14539 14542 14544     9 
14541 14539 14542 14545     9 
14539 14542 14545 14546     9 
14539 14542 14545 14547     9 
14539 14542 14545 14548     9 
14543 14542 14545 14546     9 
14543 14542 14545 14547     9 
14543 14542 14545 14548     9 
14544 14542 14545 14546     9 
14544 14542 14545 14547     9 
14544 14542 14545 14548     9 
14542 14545 14548 14549     9 
14542 14545 14548 14550     9 
14542 14545 14548 14551     9 
14546 14545 14548 14549     9 
14546 14545 14548 14550     9 
14546 14545 14548 14551     9 
14547 14545 14548 14549     9 
14547 14545 14548 14550     9 
14547 14545 14548 14551     9 
14545 14548 14551 14552     9 
14545 14548 14551 14553     9 
14545 14548 14551 14554     9 
14549 14548 14551 14552     9 
14549 14548 14551 14553     9 
14549 14548 14551 14554     9 
14550 14548 14551 14552     9 
14550 14548 14551 14553     9 
14550 14548 14551 14554     9 
14548 14551 14554 14555     9 
14548 14551 14554 14556     9 
14548 14551 14554 14557     9 
14552 14551 14554 14555     9 
14552 14551 14554 14556     9 
14552 14551 14554 14557     9 
14553 14551 14554 14555     9 
14553 14551 14554 14556     9 
14553 14551 14554 14557     9 
14551 14554 14557 14558     9 
14551 14554 14557 14559     9 
14551 14554 14557 14560     9 
14555 14554 14557 14558     9 
14555 14554 14557 14559     9 
14555 14554 14557 14560     9 
14556 14554 14557 14558     9 
14556 14554 14557 14559     9 
14556 14554 14557 14560     9 
14554 14557 14560 14561     9 
14554 14557 14560 14562     9 
14554 14557 14560 14563     9 
14558 14557 14560 14561     9 
14558 14557 14560 14562     9 
14558 14557 14560 14563     9 
14559 14557 14560 14561     9 
14559 14557 14560 14562     9 
14559 14557 14560 14563     9 
14514 14564 14567 14568     9 
14514 14564 14567 14569     9 
14514 14564 14567 14570     9 
14565 14564 14567 14568     9 
14565 14564 14567 14569     9 
14565 14564 14567 14570     9 
14566 14564 14567 14568     9 
14566 14564 14567 14569     9 
14566 14564 14567 14570     9 
14564 14567 14570 14571     9 
14564 14567 14570 14572     9 
14564 14567 14570 14573     9 
14568 14567 14570 14571     9 
14568 14567 14570 14572     9 
14568 14567 14570 14573     9 
14569 14567 14570 14571     9 
14569 14567 14570 14572     9 
14569 14567 14570 14573     9 
14567 14570 14573 14574     9 
14567 14570 14573 14575     9 
14567 14570 14573 14576     9 
14571 14570 14573 14574     9 
14571 14570 14573 14575     9 
14571 14570 14573 14576     9 
14572 14570 14573 14574     9 
14572 14570 14573 14575     9 
14572 14570 14573 14576     9 
14570 14573 14576 14577     9 
14570 14573 14576 14578     9 
14570 14573 14576 14579     9 
14574 14573 14576 14577     9 
14574 14573 14576 14578     9 
14574 14573 14576 14579     9 
14575 14573 14576 14577     9 
14575 14573 14576 14578     9 
14575 14573 14576 14579     9 
14573 14576 14579 14580     9 
14573 14576 14579 14581     9 
14573 14576 14579 14582     9 
14577 14576 14579 14580     9 
14577 14576 14579 14581     9 
14577 14576 14579 14582     9 
14578 14576 14579 14580     9 
14578 14576 14579 14581     9 
14578 14576 14579 14582     9 
14576 14579 14582 14583     9 
14576 14579 14582 14584     9 
14576 14579 14582 14585     9 
14580 14579 14582 14583     9 
14580 14579 14582 14584     9 
14580 14579 14582 14585     9 
14581 14579 14582 14583     9 
14581 14579 14582 14584     9 
14581 14579 14582 14585     9 
14579 14582 14585 14586     9 
14579 14582 14585 14587     9 
14579 14582 14585 14588     9 
14583 14582 14585 14586     9 
14583 14582 14585 14587     9 
14583 14582 14585 14588     9 
14584 14582 14585 14586     9 
14584 14582 14585 14587     9 
14584 14582 14585 14588     9 
14582 14585 14588 14589     9 
14582 14585 14588 14590     9 
14582 14585 14588 14591     9 
14586 14585 14588 14589     9 
14586 14585 14588 14590     9 
14586 14585 14588 14591     9 
14587 14585 14588 14589     9 
14587 14585 14588 14590     9 
14587 14585 14588 14591     9 
14585 14588 14591 14592     9 
14585 14588 14591 14593     9 
14585 14588 14591 14594     9 
14589 14588 14591 14592     9 
14589 14588 14591 14593     9 
14589 14588 14591 14594     9 
14590 14588 14591 14592     9 
14590 14588 14591 14593     9 
14590 14588 14591 14594     9 
14588 14591 14594 14595     9 
14588 14591 14594 14596     9 
14588 14591 14594 14597     9 
14592 14591 14594 14595     9 
14592 14591 14594 14596     9 
14592 14591 14594 14597     9 
14593 14591 14594 14595     9 
14593 14591 14594 14596     9 
14593 14591 14594 14597     9 
14591 14594 14597 14598     9 
14591 14594 14597 14599     9 
14591 14594 14597 14600     9 
14595 14594 14597 14598     9 
14595 14594 14597 14599     9 
14595 14594 14597 14600     9 
14596 14594 14597 14598     9 
14596 14594 14597 14599     9 
14596 14594 14597 14600     9 
14594 14597 14600 14601     9 
14594 14597 14600 14602     9 
14594 14597 14600 14603     9 
14598 14597 14600 14601     9 
14598 14597 14600 14602     9 
14598 14597 14600 14603     9 
14599 14597 14600 14601     9 
14599 14597 14600 14602     9 
14599 14597 14600 14603     9 
14597 14600 14603 14604     9 
14597 14600 14603 14605     9 
14597 14600 14603 14606     9 
14601 14600 14603 14604     9 
14601 14600 14603 14605     9 
14601 14600 14603 14606     9 
14602 14600 14603 14604     9 
14602 14600 14603 14605     9 
14602 14600 14603 14606     9 
14611 14607 14608 14609     9 
14611 14607 14608 14610     9 
14611 14607 14608 14623     9 
14615 14607 14608 14609     9 
14615 14607 14608 14610     9 
14615 14607 14608 14623     9 
14619 14607 14608 14609     9 
14619 14607 14608 14610     9 
14619 14607 14608 14623     9 
14608 14607 14611 14612     9 
14608 14607 14611 14613     9 
14608 14607 14611 14614     9 
14615 14607 14611 14612     9 
14615 14607 14611 14613     9 
14615 14607 14611 14614     9 
14619 14607 14611 14612     9 
14619 14607 14611 14613     9 
14619 14607 14611 14614     9 
14608 14607 14615 14616     9 
14608 14607 14615 14617     9 
14608 14607 14615 14618     9 
14611 14607 14615 14616     9 
14611 14607 14615 14617     9 
14611 14607 14615 14618     9 
14619 14607 14615 14616     9 
14619 14607 14615 14617     9 
14619 14607 14615 14618     9 
14608 14607 14619 14620     9 
14608 14607 14619 14621     9 
14608 14607 14619 14622     9 
14611 14607 14619 14620     9 
14611 14607 14619 14621     9 
14611 14607 14619 14622     9 
14615 14607 14619 14620     9 
14615 14607 14619 14621     9 
14615 14607 14619 14622     9 
14607 14608 14623 14624     9 
14607 14608 14623 14625     9 
14607 14608 14623 14629     9 
14609 14608 14623 14624     9 
14609 14608 14623 14625     9 
14609 14608 14623 14629     9 
14610 14608 14623 14624     9 
14610 14608 14623 14625     9 
14610 14608 14623 14629     9 
14608 14623 14629 14626     9 
14624 14623 14629 14626     9 
14625 14623 14629 14626     9 
14627 14626 14629 14623     9 
14628 14626 14629 14623     9 
14630 14626 14629 14623     9 
14627 14626 14630 14631     9 
14628 14626 14630 14631     9 
14629 14626 14630 14631     9 
14626 14630 14631 14632     9 
14626 14630 14631 14633     9 
14626 14630 14631 14634     9 
14630 14631 14634 14635     9 
14630 14631 14634 14636     9 
14630 14631 14634 14642     9 
14632 14631 14634 14635     9 
14632 14631 14634 14636     9 
14632 14631 14634 14642     9 
14633 14631 14634 14635     9 
14633 14631 14634 14636     9 
14633 14631 14634 14642     9 
14631 14634 14636 14637     9 
14635 14634 14636 14637     9 
14642 14634 14636 14637     9 
14631 14634 14642 14643     9 
14631 14634 14642 14644     9 
14631 14634 14642 14645     9 
14635 14634 14642 14643     9 
14635 14634 14642 14644     9 
14635 14634 14642 14645     9 
14636 14634 14642 14643     9 
14636 14634 14642 14644     9 
14636 14634 14642 14645     9 
14634 14636 14637 14638     9 
14634 14636 14637 14639     9 
14636 14637 14639 14640     9 
14636 14637 14639 14641     9 
14636 14637 14639 14651     9 
14638 14637 14639 14640     9 
14638 14637 14639 14641     9 
14638 14637 14639 14651     9 
14637 14639 14651 14652     9 
14637 14639 14651 14653     9 
14637 14639 14651 14654     9 
14640 14639 14651 14652     9 
14640 14639 14651 14653     9 
14640 14639 14651 14654     9 
14641 14639 14651 14652     9 
14641 14639 14651 14653     9 
14641 14639 14651 14654     9 
14634 14642 14645 14646     9 
14643 14642 14645 14646     9 
14644 14642 14645 14646     9 
14642 14645 14646 14647     9 
14642 14645 14646 14648     9 
14645 14646 14648 14649     9 
14645 14646 14648 14650     9 
14645 14646 14648 14698     9 
14647 14646 14648 14649     9 
14647 14646 14648 14650     9 
14647 14646 14648 14698     9 
14646 14648 14698 14699     9 
14646 14648 14698 14700     9 
14646 14648 14698 14701     9 
14649 14648 14698 14699     9 
14649 14648 14698 14700     9 
14649 14648 14698 14701     9 
14650 14648 14698 14699     9 
14650 14648 14698 14700     9 
14650 14648 14698 14701     9 
14639 14651 14654 14655     9 
14639 14651 14654 14656     9 
14639 14651 14654 14657     9 
14652 14651 14654 14655     9 
14652 14651 14654 14656     9 
14652 14651 14654 14657     9 
14653 14651 14654 14655     9 
14653 14651 14654 14656     9 
14653 14651 14654 14657     9 
14651 14654 14657 14658     9 
14651 14654 14657 14659     9 
14651 14654 14657 14660     9 
14655 14654 14657 14658     9 
14655 14654 14657 14659     9 
14655 14654 14657 14660     9 
14656 14654 14657 14658     9 
14656 14654 14657 14659     9 
14656 14654 14657 14660     9 
14654 14657 14660 14661     9 
14654 14657 14660 14662     9 
14654 14657 14660 14663     9 
14658 14657 14660 14661     9 
14658 14657 14660 14662     9 
14658 14657 14660 14663     9 
14659 14657 14660 14661     9 
14659 14657 14660 14662     9 
14659 14657 14660 14663     9 
14657 14660 14663 14664     9 
14657 14660 14663 14665     9 
14657 14660 14663 14666     9 
14661 14660 14663 14664     9 
14661 14660 14663 14665     9 
14661 14660 14663 14666     9 
14662 14660 14663 14664     9 
14662 14660 14663 14665     9 
14662 14660 14663 14666     9 
14660 14663 14666 14667     9 
14660 14663 14666 14668     9 
14660 14663 14666 14669     9 
14664 14663 14666 14667     9 
14664 14663 14666 14668     9 
14664 14663 14666 14669     9 
14665 14663 14666 14667     9 
14665 14663 14666 14668     9 
14665 14663 14666 14669     9 
14663 14666 14669 14670     9 
14663 14666 14669 14671     9 
14667 14666 14669 14670     9 
14667 14666 14669 14671     9 
14668 14666 14669 14670     9 
14668 14666 14669 14671     9 
14666 14669 14671 14672     9 
14666 14669 14671 14673     9 
14670 14669 14671 14672     9 
14670 14669 14671 14673     9 
14669 14671 14673 14674     9 
14669 14671 14673 14675     9 
14669 14671 14673 14676     9 
14672 14671 14673 14674     9 
14672 14671 14673 14675     9 
14672 14671 14673 14676     9 
14671 14673 14676 14677     9 
14671 14673 14676 14678     9 
14671 14673 14676 14679     9 
14674 14673 14676 14677     9 
14674 14673 14676 14678     9 
14674 14673 14676 14679     9 
14675 14673 14676 14677     9 
14675 14673 14676 14678     9 
14675 14673 14676 14679     9 
14673 14676 14679 14680     9 
14673 14676 14679 14681     9 
14673 14676 14679 14682     9 
14677 14676 14679 14680     9 
14677 14676 14679 14681     9 
14677 14676 14679 14682     9 
14678 14676 14679 14680     9 
14678 14676 14679 14681     9 
14678 14676 14679 14682     9 
14676 14679 14682 14683     9 
14676 14679 14682 14684     9 
14676 14679 14682 14685     9 
14680 14679 14682 14683     9 
14680 14679 14682 14684     9 
14680 14679 14682 14685     9 
14681 14679 14682 14683     9 
14681 14679 14682 14684     9 
14681 14679 14682 14685     9 
14679 14682 14685 14686     9 
14679 14682 14685 14687     9 
14679 14682 14685 14688     9 
14683 14682 14685 14686     9 
14683 14682 14685 14687     9 
14683 14682 14685 14688     9 
14684 14682 14685 14686     9 
14684 14682 14685 14687     9 
14684 14682 14685 14688     9 
14682 14685 14688 14689     9 
14682 14685 14688 14690     9 
14682 14685 14688 14691     9 
14686 14685 14688 14689     9 
14686 14685 14688 14690     9 
14686 14685 14688 14691     9 
14687 14685 14688 14689     9 
14687 14685 14688 14690     9 
14687 14685 14688 14691     9 
14685 14688 14691 14692     9 
14685 14688 14691 14693     9 
14685 14688 14691 14694     9 
14689 14688 14691 14692     9 
14689 14688 14691 14693     9 
14689 14688 14691 14694     9 
14690 14688 14691 14692     9 
14690 14688 14691 14693     9 
14690 14688 14691 14694     9 
14688 14691 14694 14695     9 
14688 14691 14694 14696     9 
14688 14691 14694 14697     9 
14692 14691 14694 14695     9 
14692 14691 14694 14696     9 
14692 14691 14694 14697     9 
14693 14691 14694 14695     9 
14693 14691 14694 14696     9 
14693 14691 14694 14697     9 
14648 14698 14701 14702     9 
14648 14698 14701 14703     9 
14648 14698 14701 14704     9 
14699 14698 14701 14702     9 
14699 14698 14701 14703     9 
14699 14698 14701 14704     9 
14700 14698 14701 14702     9 
14700 14698 14701 14703     9 
14700 14698 14701 14704     9 
14698 14701 14704 14705     9 
14698 14701 14704 14706     9 
14698 14701 14704 14707     9 
14702 14701 14704 14705     9 
14702 14701 14704 14706     9 
14702 14701 14704 14707     9 
14703 14701 14704 14705     9 
14703 14701 14704 14706     9 
14703 14701 14704 14707     9 
14701 14704 14707 14708     9 
14701 14704 14707 14709     9 
14701 14704 14707 14710     9 
14705 14704 14707 14708     9 
14705 14704 14707 14709     9 
14705 14704 14707 14710     9 
14706 14704 14707 14708     9 
14706 14704 14707 14709     9 
14706 14704 14707 14710     9 
14704 14707 14710 14711     9 
14704 14707 14710 14712     9 
14704 14707 14710 14713     9 
14708 14707 14710 14711     9 
14708 14707 14710 14712     9 
14708 14707 14710 14713     9 
14709 14707 14710 14711     9 
14709 14707 14710 14712     9 
14709 14707 14710 14713     9 
14707 14710 14713 14714     9 
14707 14710 14713 14715     9 
14707 14710 14713 14716     9 
14711 14710 14713 14714     9 
14711 14710 14713 14715     9 
14711 14710 14713 14716     9 
14712 14710 14713 14714     9 
14712 14710 14713 14715     9 
14712 14710 14713 14716     9 
14710 14713 14716 14717     9 
14710 14713 14716 14718     9 
14710 14713 14716 14719     9 
14714 14713 14716 14717     9 
14714 14713 14716 14718     9 
14714 14713 14716 14719     9 
14715 14713 14716 14717     9 
14715 14713 14716 14718     9 
14715 14713 14716 14719     9 
14713 14716 14719 14720     9 
14713 14716 14719 14721     9 
14713 14716 14719 14722     9 
14717 14716 14719 14720     9 
14717 14716 14719 14721     9 
14717 14716 14719 14722     9 
14718 14716 14719 14720     9 
14718 14716 14719 14721     9 
14718 14716 14719 14722     9 
14716 14719 14722 14723     9 
14716 14719 14722 14724     9 
14716 14719 14722 14725     9 
14720 14719 14722 14723     9 
14720 14719 14722 14724     9 
14720 14719 14722 14725     9 
14721 14719 14722 14723     9 
14721 14719 14722 14724     9 
14721 14719 14722 14725     9 
14719 14722 14725 14726     9 
14719 14722 14725 14727     9 
14719 14722 14725 14728     9 
14723 14722 14725 14726     9 
14723 14722 14725 14727     9 
14723 14722 14725 14728     9 
14724 14722 14725 14726     9 
14724 14722 14725 14727     9 
14724 14722 14725 14728     9 
14722 14725 14728 14729     9 
14722 14725 14728 14730     9 
14722 14725 14728 14731     9 
14726 14725 14728 14729     9 
14726 14725 14728 14730     9 
14726 14725 14728 14731     9 
14727 14725 14728 14729     9 
14727 14725 14728 14730     9 
14727 14725 14728 14731     9 
14725 14728 14731 14732     9 
14725 14728 14731 14733     9 
14725 14728 14731 14734     9 
14729 14728 14731 14732     9 
14729 14728 14731 14733     9 
14729 14728 14731 14734     9 
14730 14728 14731 14732     9 
14730 14728 14731 14733     9 
14730 14728 14731 14734     9 
14728 14731 14734 14735     9 
14728 14731 14734 14736     9 
14728 14731 14734 14737     9 
14732 14731 14734 14735     9 
14732 14731 14734 14736     9 
14732 14731 14734 14737     9 
14733 14731 14734 14735     9 
14733 14731 14734 14736     9 
14733 14731 14734 14737     9 
14731 14734 14737 14738     9 
14731 14734 14737 14739     9 
14731 14734 14737 14740     9 
14735 14734 14737 14738     9 
14735 14734 14737 14739     9 
14735 14734 14737 14740     9 
14736 14734 14737 14738     9 
14736 14734 14737 14739     9 
14736 14734 14737 14740     9 
14745 14741 14742 14743     9 
14745 14741 14742 14744     9 
14745 14741 14742 14757     9 
14749 14741 14742 14743     9 
14749 14741 14742 14744     9 
14749 14741 14742 14757     9 
14753 14741 14742 14743     9 
14753 14741 14742 14744     9 
14753 14741 14742 14757     9 
14742 14741 14745 14746     9 
14742 14741 14745 14747     9 
14742 14741 14745 14748     9 
14749 14741 14745 14746     9 
14749 14741 14745 14747     9 
14749 14741 14745 14748     9 
14753 14741 14745 14746     9 
14753 14741 14745 14747     9 
14753 14741 14745 14748     9 
14742 14741 14749 14750     9 
14742 14741 14749 14751     9 
14742 14741 14749 14752     9 
14745 14741 14749 14750     9 
14745 14741 14749 14751     9 
14745 14741 14749 14752     9 
14753 14741 14749 14750     9 
14753 14741 14749 14751     9 
14753 14741 14749 14752     9 
14742 14741 14753 14754     9 
14742 14741 14753 14755     9 
14742 14741 14753 14756     9 
14745 14741 14753 14754     9 
14745 14741 14753 14755     9 
14745 14741 14753 14756     9 
14749 14741 14753 14754     9 
14749 14741 14753 14755     9 
14749 14741 14753 14756     9 
14741 14742 14757 14758     9 
14741 14742 14757 14759     9 
14741 14742 14757 14763     9 
14743 14742 14757 14758     9 
14743 14742 14757 14759     9 
14743 14742 14757 14763     9 
14744 14742 14757 14758     9 
14744 14742 14757 14759     9 
14744 14742 14757 14763     9 
14742 14757 14763 14760     9 
14758 14757 14763 14760     9 
14759 14757 14763 14760     9 
14761 14760 14763 14757     9 
14762 14760 14763 14757     9 
14764 14760 14763 14757     9 
14761 14760 14764 14765     9 
14762 14760 14764 14765     9 
14763 14760 14764 14765     9 
14760 14764 14765 14766     9 
14760 14764 14765 14767     9 
14760 14764 14765 14768     9 
14764 14765 14768 14769     9 
14764 14765 14768 14770     9 
14764 14765 14768 14776     9 
14766 14765 14768 14769     9 
14766 14765 14768 14770     9 
14766 14765 14768 14776     9 
14767 14765 14768 14769     9 
14767 14765 14768 14770     9 
14767 14765 14768 14776     9 
14765 14768 14770 14771     9 
14769 14768 14770 14771     9 
14776 14768 14770 14771     9 
14765 14768 14776 14777     9 
14765 14768 14776 14778     9 
14765 14768 14776 14779     9 
14769 14768 14776 14777     9 
14769 14768 14776 14778     9 
14769 14768 14776 14779     9 
14770 14768 14776 14777     9 
14770 14768 14776 14778     9 
14770 14768 14776 14779     9 
14768 14770 14771 14772     9 
14768 14770 14771 14773     9 
14770 14771 14773 14774     9 
14770 14771 14773 14775     9 
14770 14771 14773 14785     9 
14772 14771 14773 14774     9 
14772 14771 14773 14775     9 
14772 14771 14773 14785     9 
14771 14773 14785 14786     9 
14771 14773 14785 14787     9 
14771 14773 14785 14788     9 
14774 14773 14785 14786     9 
14774 14773 14785 14787     9 
14774 14773 14785 14788     9 
14775 14773 14785 14786     9 
14775 14773 14785 14787     9 
14775 14773 14785 14788     9 
14768 14776 14779 14780     9 
14777 14776 14779 14780     9 
14778 14776 14779 14780     9 
14776 14779 14780 14781     9 
14776 14779 14780 14782     9 
14779 14780 14782 14783     9 
14779 14780 14782 14784     9 
14779 14780 14782 14832     9 
14781 14780 14782 14783     9 
14781 14780 14782 14784     9 
14781 14780 14782 14832     9 
14780 14782 14832 14833     9 
14780 14782 14832 14834     9 
14780 14782 14832 14835     9 
14783 14782 14832 14833     9 
14783 14782 14832 14834     9 
14783 14782 14832 14835     9 
14784 14782 14832 14833     9 
14784 14782 14832 14834     9 
14784 14782 14832 14835     9 
14773 14785 14788 14789     9 
14773 14785 14788 14790     9 
14773 14785 14788 14791     9 
14786 14785 14788 14789     9 
14786 14785 14788 14790     9 
14786 14785 14788 14791     9 
14787 14785 14788 14789     9 
14787 14785 14788 14790     9 
14787 14785 14788 14791     9 
14785 14788 14791 14792     9 
14785 14788 14791 14793     9 
14785 14788 14791 14794     9 
14789 14788 14791 14792     9 
14789 14788 14791 14793     9 
14789 14788 14791 14794     9 
14790 14788 14791 14792     9 
14790 14788 14791 14793     9 
14790 14788 14791 14794     9 
14788 14791 14794 14795     9 
14788 14791 14794 14796     9 
14788 14791 14794 14797     9 
14792 14791 14794 14795     9 
14792 14791 14794 14796     9 
14792 14791 14794 14797     9 
14793 14791 14794 14795     9 
14793 14791 14794 14796     9 
14793 14791 14794 14797     9 
14791 14794 14797 14798     9 
14791 14794 14797 14799     9 
14791 14794 14797 14800     9 
14795 14794 14797 14798     9 
14795 14794 14797 14799     9 
14795 14794 14797 14800     9 
14796 14794 14797 14798     9 
14796 14794 14797 14799     9 
14796 14794 14797 14800     9 
14794 14797 14800 14801     9 
14794 14797 14800 14802     9 
14794 14797 14800 14803     9 
14798 14797 14800 14801     9 
14798 14797 14800 14802     9 
14798 14797 14800 14803     9 
14799 14797 14800 14801     9 
14799 14797 14800 14802     9 
14799 14797 14800 14803     9 
14797 14800 14803 14804     9 
14797 14800 14803 14805     9 
14801 14800 14803 14804     9 
14801 14800 14803 14805     9 
14802 14800 14803 14804     9 
14802 14800 14803 14805     9 
14800 14803 14805 14806     9 
14800 14803 14805 14807     9 
14804 14803 14805 14806     9 
14804 14803 14805 14807     9 
14803 14805 14807 14808     9 
14803 14805 14807 14809     9 
14803 14805 14807 14810     9 
14806 14805 14807 14808     9 
14806 14805 14807 14809     9 
14806 14805 14807 14810     9 
14805 14807 14810 14811     9 
14805 14807 14810 14812     9 
14805 14807 14810 14813     9 
14808 14807 14810 14811     9 
14808 14807 14810 14812     9 
14808 14807 14810 14813     9 
14809 14807 14810 14811     9 
14809 14807 14810 14812     9 
14809 14807 14810 14813     9 
14807 14810 14813 14814     9 
14807 14810 14813 14815     9 
14807 14810 14813 14816     9 
14811 14810 14813 14814     9 
14811 14810 14813 14815     9 
14811 14810 14813 14816     9 
14812 14810 14813 14814     9 
14812 14810 14813 14815     9 
14812 14810 14813 14816     9 
14810 14813 14816 14817     9 
14810 14813 14816 14818     9 
14810 14813 14816 14819     9 
14814 14813 14816 14817     9 
14814 14813 14816 14818     9 
14814 14813 14816 14819     9 
14815 14813 14816 14817     9 
14815 14813 14816 14818     9 
14815 14813 14816 14819     9 
14813 14816 14819 14820     9 
14813 14816 14819 14821     9 
14813 14816 14819 14822     9 
14817 14816 14819 14820     9 
14817 14816 14819 14821     9 
14817 14816 14819 14822     9 
14818 14816 14819 14820     9 
14818 14816 14819 14821     9 
14818 14816 14819 14822     9 
14816 14819 14822 14823     9 
14816 14819 14822 14824     9 
14816 14819 14822 14825     9 
14820 14819 14822 14823     9 
14820 14819 14822 14824     9 
14820 14819 14822 14825     9 
14821 14819 14822 14823     9 
14821 14819 14822 14824     9 
14821 14819 14822 14825     9 
14819 14822 14825 14826     9 
14819 14822 14825 14827     9 
14819 14822 14825 14828     9 
14823 14822 14825 14826     9 
14823 14822 14825 14827     9 
14823 14822 14825 14828     9 
14824 14822 14825 14826     9 
14824 14822 14825 14827     9 
14824 14822 14825 14828     9 
14822 14825 14828 14829     9 
14822 14825 14828 14830     9 
14822 14825 14828 14831     9 
14826 14825 14828 14829     9 
14826 14825 14828 14830     9 
14826 14825 14828 14831     9 
14827 14825 14828 14829     9 
14827 14825 14828 14830     9 
14827 14825 14828 14831     9 
14782 14832 14835 14836     9 
14782 14832 14835 14837     9 
14782 14832 14835 14838     9 
14833 14832 14835 14836     9 
14833 14832 14835 14837     9 
14833 14832 14835 14838     9 
14834 14832 14835 14836     9 
14834 14832 14835 14837     9 
14834 14832 14835 14838     9 
14832 14835 14838 14839     9 
14832 14835 14838 14840     9 
14832 14835 14838 14841     9 
14836 14835 14838 14839     9 
14836 14835 14838 14840     9 
14836 14835 14838 14841     9 
14837 14835 14838 14839     9 
14837 14835 14838 14840     9 
14837 14835 14838 14841     9 
14835 14838 14841 14842     9 
14835 14838 14841 14843     9 
14835 14838 14841 14844     9 
14839 14838 14841 14842     9 
14839 14838 14841 14843     9 
14839 14838 14841 14844     9 
14840 14838 14841 14842     9 
14840 14838 14841 14843     9 
14840 14838 14841 14844     9 
14838 14841 14844 14845     9 
14838 14841 14844 14846     9 
14838 14841 14844 14847     9 
14842 14841 14844 14845     9 
14842 14841 14844 14846     9 
14842 14841 14844 14847     9 
14843 14841 14844 14845     9 
14843 14841 14844 14846     9 
14843 14841 14844 14847     9 
14841 14844 14847 14848     9 
14841 14844 14847 14849     9 
14841 14844 14847 14850     9 
14845 14844 14847 14848     9 
14845 14844 14847 14849     9 
14845 14844 14847 14850     9 
14846 14844 14847 14848     9 
14846 14844 14847 14849     9 
14846 14844 14847 14850     9 
14844 14847 14850 14851     9 
14844 14847 14850 14852     9 
14844 14847 14850 14853     9 
14848 14847 14850 14851     9 
14848 14847 14850 14852     9 
14848 14847 14850 14853     9 
14849 14847 14850 14851     9 
14849 14847 14850 14852     9 
14849 14847 14850 14853     9 
14847 14850 14853 14854     9 
14847 14850 14853 14855     9 
14847 14850 14853 14856     9 
14851 14850 14853 14854     9 
14851 14850 14853 14855     9 
14851 14850 14853 14856     9 
14852 14850 14853 14854     9 
14852 14850 14853 14855     9 
14852 14850 14853 14856     9 
14850 14853 14856 14857     9 
14850 14853 14856 14858     9 
14850 14853 14856 14859     9 
14854 14853 14856 14857     9 
14854 14853 14856 14858     9 
14854 14853 14856 14859     9 
14855 14853 14856 14857     9 
14855 14853 14856 14858     9 
14855 14853 14856 14859     9 
14853 14856 14859 14860     9 
14853 14856 14859 14861     9 
14853 14856 14859 14862     9 
14857 14856 14859 14860     9 
14857 14856 14859 14861     9 
14857 14856 14859 14862     9 
14858 14856 14859 14860     9 
14858 14856 14859 14861     9 
14858 14856 14859 14862     9 
14856 14859 14862 14863     9 
14856 14859 14862 14864     9 
14856 14859 14862 14865     9 
14860 14859 14862 14863     9 
14860 14859 14862 14864     9 
14860 14859 14862 14865     9 
14861 14859 14862 14863     9 
14861 14859 14862 14864     9 
14861 14859 14862 14865     9 
14859 14862 14865 14866     9 
14859 14862 14865 14867     9 
14859 14862 14865 14868     9 
14863 14862 14865 14866     9 
14863 14862 14865 14867     9 
14863 14862 14865 14868     9 
14864 14862 14865 14866     9 
14864 14862 14865 14867     9 
14864 14862 14865 14868     9 
14862 14865 14868 14869     9 
14862 14865 14868 14870     9 
14862 14865 14868 14871     9 
14866 14865 14868 14869     9 
14866 14865 14868 14870     9 
14866 14865 14868 14871     9 
14867 14865 14868 14869     9 
14867 14865 14868 14870     9 
14867 14865 14868 14871     9 
14865 14868 14871 14872     9 
14865 14868 14871 14873     9 
14865 14868 14871 14874     9 
14869 14868 14871 14872     9 
14869 14868 14871 14873     9 
14869 14868 14871 14874     9 
14870 14868 14871 14872     9 
14870 14868 14871 14873     9 
14870 14868 14871 14874     9 
14879 14875 14876 14877     9 
14879 14875 14876 14878     9 
14879 14875 14876 14891     9 
14883 14875 14876 14877     9 
14883 14875 14876 14878     9 
14883 14875 14876 14891     9 
14887 14875 14876 14877     9 
14887 14875 14876 14878     9 
14887 14875 14876 14891     9 
14876 14875 14879 14880     9 
14876 14875 14879 14881     9 
14876 14875 14879 14882     9 
14883 14875 14879 14880     9 
14883 14875 14879 14881     9 
14883 14875 14879 14882     9 
14887 14875 14879 14880     9 
14887 14875 14879 14881     9 
14887 14875 14879 14882     9 
14876 14875 14883 14884     9 
14876 14875 14883 14885     9 
14876 14875 14883 14886     9 
14879 14875 14883 14884     9 
14879 14875 14883 14885     9 
14879 14875 14883 14886     9 
14887 14875 14883 14884     9 
14887 14875 14883 14885     9 
14887 14875 14883 14886     9 
14876 14875 14887 14888     9 
14876 14875 14887 14889     9 
14876 14875 14887 14890     9 
14879 14875 14887 14888     9 
14879 14875 14887 14889     9 
14879 14875 14887 14890     9 
14883 14875 14887 14888     9 
14883 14875 14887 14889     9 
14883 14875 14887 14890     9 
14875 14876 14891 14892     9 
14875 14876 14891 14893     9 
14875 14876 14891 14897     9 
14877 14876 14891 14892     9 
14877 14876 14891 14893     9 
14877 14876 14891 14897     9 
14878 14876 14891 14892     9 
14878 14876 14891 14893     9 
14878 14876 14891 14897     9 
14876 14891 14897 14894     9 
14892 14891 14897 14894     9 
14893 14891 14897 14894     9 
14895 14894 14897 14891     9 
14896 14894 14897 14891     9 
14898 14894 14897 14891     9 
14895 14894 14898 14899     9 
14896 14894 14898 14899     9 
14897 14894 14898 14899     9 
14894 14898 14899 14900     9 
14894 14898 14899 14901     9 
14894 14898 14899 14902     9 
14898 14899 14902 14903     9 
14898 14899 14902 14904     9 
14898 14899 14902 14910     9 
14900 14899 14902 14903     9 
14900 14899 14902 14904     9 
14900 14899 14902 14910     9 
14901 14899 14902 14903     9 
14901 14899 14902 14904     9 
14901 14899 14902 14910     9 
14899 14902 14904 14905     9 
14903 14902 14904 14905     9 
14910 14902 14904 14905     9 
14899 14902 14910 14911     9 
14899 14902 14910 14912     9 
14899 14902 14910 14913     9 
14903 14902 14910 14911     9 
14903 14902 14910 14912     9 
14903 14902 14910 14913     9 
14904 14902 14910 14911     9 
14904 14902 14910 14912     9 
14904 14902 14910 14913     9 
14902 14904 14905 14906     9 
14902 14904 14905 14907     9 
14904 14905 14907 14908     9 
14904 14905 14907 14909     9 
14904 14905 14907 14919     9 
14906 14905 14907 14908     9 
14906 14905 14907 14909     9 
14906 14905 14907 14919     9 
14905 14907 14919 14920     9 
14905 14907 14919 14921     9 
14905 14907 14919 14922     9 
14908 14907 14919 14920     9 
14908 14907 14919 14921     9 
14908 14907 14919 14922     9 
14909 14907 14919 14920     9 
14909 14907 14919 14921     9 
14909 14907 14919 14922     9 
14902 14910 14913 14914     9 
14911 14910 14913 14914     9 
14912 14910 14913 14914     9 
14910 14913 14914 14915     9 
14910 14913 14914 14916     9 
14913 14914 14916 14917     9 
14913 14914 14916 14918     9 
14913 14914 14916 14966     9 
14915 14914 14916 14917     9 
14915 14914 14916 14918     9 
14915 14914 14916 14966     9 
14914 14916 14966 14967     9 
14914 14916 14966 14968     9 
14914 14916 14966 14969     9 
14917 14916 14966 14967     9 
14917 14916 14966 14968     9 
14917 14916 14966 14969     9 
14918 14916 14966 14967     9 
14918 14916 14966 14968     9 
14918 14916 14966 14969     9 
14907 14919 14922 14923     9 
14907 14919 14922 14924     9 
14907 14919 14922 14925     9 
14920 14919 14922 14923     9 
14920 14919 14922 14924     9 
14920 14919 14922 14925     9 
14921 14919 14922 14923     9 
14921 14919 14922 14924     9 
14921 14919 14922 14925     9 
14919 14922 14925 14926     9 
14919 14922 14925 14927     9 
14919 14922 14925 14928     9 
14923 14922 14925 14926     9 
14923 14922 14925 14927     9 
14923 14922 14925 14928     9 
14924 14922 14925 14926     9 
14924 14922 14925 14927     9 
14924 14922 14925 14928     9 
14922 14925 14928 14929     9 
14922 14925 14928 14930     9 
14922 14925 14928 14931     9 
14926 14925 14928 14929     9 
14926 14925 14928 14930     9 
14926 14925 14928 14931     9 
14927 14925 14928 14929     9 
14927 14925 14928 14930     9 
14927 14925 14928 14931     9 
14925 14928 14931 14932     9 
14925 14928 14931 14933     9 
14925 14928 14931 14934     9 
14929 14928 14931 14932     9 
14929 14928 14931 14933     9 
14929 14928 14931 14934     9 
14930 14928 14931 14932     9 
14930 14928 14931 14933     9 
14930 14928 14931 14934     9 
14928 14931 14934 14935     9 
14928 14931 14934 14936     9 
14928 14931 14934 14937     9 
14932 14931 14934 14935     9 
14932 14931 14934 14936     9 
14932 14931 14934 14937     9 
14933 14931 14934 14935     9 
14933 14931 14934 14936     9 
14933 14931 14934 14937     9 
14931 14934 14937 14938     9 
14931 14934 14937 14939     9 
14935 14934 14937 14938     9 
14935 14934 14937 14939     9 
14936 14934 14937 14938     9 
14936 14934 14937 14939     9 
14934 14937 14939 14940     9 
14934 14937 14939 14941     9 
14938 14937 14939 14940     9 
14938 14937 14939 14941     9 
14937 14939 14941 14942     9 
14937 14939 14941 14943     9 
14937 14939 14941 14944     9 
14940 14939 14941 14942     9 
14940 14939 14941 14943     9 
14940 14939 14941 14944     9 
14939 14941 14944 14945     9 
14939 14941 14944 14946     9 
14939 14941 14944 14947     9 
14942 14941 14944 14945     9 
14942 14941 14944 14946     9 
14942 14941 14944 14947     9 
14943 14941 14944 14945     9 
14943 14941 14944 14946     9 
14943 14941 14944 14947     9 
14941 14944 14947 14948     9 
14941 14944 14947 14949     9 
14941 14944 14947 14950     9 
14945 14944 14947 14948     9 
14945 14944 14947 14949     9 
14945 14944 14947 14950     9 
14946 14944 14947 14948     9 
14946 14944 14947 14949     9 
14946 14944 14947 14950     9 
14944 14947 14950 14951     9 
14944 14947 14950 14952     9 
14944 14947 14950 14953     9 
14948 14947 14950 14951     9 
14948 14947 14950 14952     9 
14948 14947 14950 14953     9 
14949 14947 14950 14951     9 
14949 14947 14950 14952     9 
14949 14947 14950 14953     9 
14947 14950 14953 14954     9 
14947 14950 14953 14955     9 
14947 14950 14953 14956     9 
14951 14950 14953 14954     9 
14951 14950 14953 14955     9 
14951 14950 14953 14956     9 
14952 14950 14953 14954     9 
14952 14950 14953 14955     9 
14952 14950 14953 14956     9 
14950 14953 14956 14957     9 
14950 14953 14956 14958     9 
14950 14953 14956 14959     9 
14954 14953 14956 14957     9 
14954 14953 14956 14958     9 
14954 14953 14956 14959     9 
14955 14953 14956 14957     9 
14955 14953 14956 14958     9 
14955 14953 14956 14959     9 
14953 14956 14959 14960     9 
14953 14956 14959 14961     9 
14953 14956 14959 14962     9 
14957 14956 14959 14960     9 
14957 14956 14959 14961     9 
14957 14956 14959 14962     9 
14958 14956 14959 14960     9 
14958 14956 14959 14961     9 
14958 14956 14959 14962     9 
14956 14959 14962 14963     9 
14956 14959 14962 14964     9 
14956 14959 14962 14965     9 
14960 14959 14962 14963     9 
14960 14959 14962 14964     9 
14960 14959 14962 14965     9 
14961 14959 14962 14963     9 
14961 14959 14962 14964     9 
14961 14959 14962 14965     9 
14916 14966 14969 14970     9 
14916 14966 14969 14971     9 
14916 14966 14969 14972     9 
14967 14966 14969 14970     9 
14967 14966 14969 14971     9 
14967 14966 14969 14972     9 
14968 14966 14969 14970     9 
14968 14966 14969 14971     9 
14968 14966 14969 14972     9 
14966 14969 14972 14973     9 
14966 14969 14972 14974     9 
14966 14969 14972 14975     9 
14970 14969 14972 14973     9 
14970 14969 14972 14974     9 
14970 14969 14972 14975     9 
14971 14969 14972 14973     9 
14971 14969 14972 14974     9 
14971 14969 14972 14975     9 
14969 14972 14975 14976     9 
14969 14972 14975 14977     9 
14969 14972 14975 14978     9 
14973 14972 14975 14976     9 
14973 14972 14975 14977     9 
14973 14972 14975 14978     9 
14974 14972 14975 14976     9 
14974 14972 14975 14977     9 
14974 14972 14975 14978     9 
14972 14975 14978 14979     9 
14972 14975 14978 14980     9 
14972 14975 14978 14981     9 
14976 14975 14978 14979     9 
14976 14975 14978 14980     9 
14976 14975 14978 14981     9 
14977 14975 14978 14979     9 
14977 14975 14978 14980     9 
14977 14975 14978 14981     9 
14975 14978 14981 14982     9 
14975 14978 14981 14983     9 
14975 14978 14981 14984     9 
14979 14978 14981 14982     9 
14979 14978 14981 14983     9 
14979 14978 14981 14984     9 
14980 14978 14981 14982     9 
14980 14978 14981 14983     9 
14980 14978 14981 14984     9 
14978 14981 14984 14985     9 
14978 14981 14984 14986     9 
14978 14981 14984 14987     9 
14982 14981 14984 14985     9 
14982 14981 14984 14986     9 
14982 14981 14984 14987     9 
14983 14981 14984 14985     9 
14983 14981 14984 14986     9 
14983 14981 14984 14987     9 
14981 14984 14987 14988     9 
14981 14984 14987 14989     9 
14981 14984 14987 14990     9 
14985 14984 14987 14988     9 
14985 14984 14987 14989     9 
14985 14984 14987 14990     9 
14986 14984 14987 14988     9 
14986 14984 14987 14989     9 
14986 14984 14987 14990     9 
14984 14987 14990 14991     9 
14984 14987 14990 14992     9 
14984 14987 14990 14993     9 
14988 14987 14990 14991     9 
14988 14987 14990 14992     9 
14988 14987 14990 14993     9 
14989 14987 14990 14991     9 
14989 14987 14990 14992     9 
14989 14987 14990 14993     9 
14987 14990 14993 14994     9 
14987 14990 14993 14995     9 
14987 14990 14993 14996     9 
14991 14990 14993 14994     9 
14991 14990 14993 14995     9 
14991 14990 14993 14996     9 
14992 14990 14993 14994     9 
14992 14990 14993 14995     9 
14992 14990 14993 14996     9 
14990 14993 14996 14997     9 
14990 14993 14996 14998     9 
14990 14993 14996 14999     9 
14994 14993 14996 14997     9 
14994 14993 14996 14998     9 
14994 14993 14996 14999     9 
14995 14993 14996 14997     9 
14995 14993 14996 14998     9 
14995 14993 14996 14999     9 
14993 14996 14999 15000     9 
14993 14996 14999 15001     9 
14993 14996 14999 15002     9 
14997 14996 14999 15000     9 
14997 14996 14999 15001     9 
14997 14996 14999 15002     9 
14998 14996 14999 15000     9 
14998 14996 14999 15001     9 
14998 14996 14999 15002     9 
14996 14999 15002 15003     9 
14996 14999 15002 15004     9 
14996 14999 15002 15005     9 
15000 14999 15002 15003     9 
15000 14999 15002 15004     9 
15000 14999 15002 15005     9 
15001 14999 15002 15003     9 
15001 14999 15002 15004     9 
15001 14999 15002 15005     9 
14999 15002 15005 15006     9 
14999 15002 15005 15007     9 
14999 15002 15005 15008     9 
15003 15002 15005 15006     9 
15003 15002 15005 15007     9 
15003 15002 15005 15008     9 
15004 15002 15005 15006     9 
15004 15002 15005 15007     9 
15004 15002 15005 15008     9 
15013 15009 15010 15011     9 
15013 15009 15010 15012     9 
15013 15009 15010 15025     9 
15017 15009 15010 15011     9 
15017 15009 15010 15012     9 
15017 15009 15010 15025     9 
15021 15009 15010 15011     9 
15021 15009 15010 15012     9 
15021 15009 15010 15025     9 
15010 15009 15013 15014     9 
15010 15009 15013 15015     9 
15010 15009 15013 15016     9 
15017 15009 15013 15014     9 
15017 15009 15013 15015     9 
15017 15009 15013 15016     9 
15021 15009 15013 15014     9 
15021 15009 15013 15015     9 
15021 15009 15013 15016     9 
15010 15009 15017 15018     9 
15010 15009 15017 15019     9 
15010 15009 15017 15020     9 
15013 15009 15017 15018     9 
15013 15009 15017 15019     9 
15013 15009 15017 15020     9 
15021 15009 15017 15018     9 
15021 15009 15017 15019     9 
15021 15009 15017 15020     9 
15010 15009 15021 15022     9 
15010 15009 15021 15023     9 
15010 15009 15021 15024     9 
15013 15009 15021 15022     9 
15013 15009 15021 15023     9 
15013 15009 15021 15024     9 
15017 15009 15021 15022     9 
15017 15009 15021 15023     9 
15017 15009 15021 15024     9 
15009 15010 15025 15026     9 
15009 15010 15025 15027     9 
15009 15010 15025 15031     9 
15011 15010 15025 15026     9 
15011 15010 15025 15027     9 
15011 15010 15025 15031     9 
15012 15010 15025 15026     9 
15012 15010 15025 15027     9 
15012 15010 15025 15031     9 
15010 15025 15031 15028     9 
15026 15025 15031 15028     9 
15027 15025 15031 15028     9 
15029 15028 15031 15025     9 
15030 15028 15031 15025     9 
15032 15028 15031 15025     9 
15029 15028 15032 15033     9 
15030 15028 15032 15033     9 
15031 15028 15032 15033     9 
15028 15032 15033 15034     9 
15028 15032 15033 15035     9 
15028 15032 15033 15036     9 
15032 15033 15036 15037     9 
15032 15033 15036 15038     9 
15032 15033 15036 15044     9 
15034 15033 15036 15037     9 
15034 15033 15036 15038     9 
15034 15033 15036 15044     9 
15035 15033 15036 15037     9 
15035 15033 15036 15038     9 
15035 15033 15036 15044     9 
15033 15036 15038 15039     9 
15037 15036 15038 15039     9 
15044 15036 15038 15039     9 
15033 15036 15044 15045     9 
15033 15036 15044 15046     9 
15033 15036 15044 15047     9 
15037 15036 15044 15045     9 
15037 15036 15044 15046     9 
15037 15036 15044 15047     9 
15038 15036 15044 15045     9 
15038 15036 15044 15046     9 
15038 15036 15044 15047     9 
15036 15038 15039 15040     9 
15036 15038 15039 15041     9 
15038 15039 15041 15042     9 
15038 15039 15041 15043     9 
15038 15039 15041 15053     9 
15040 15039 15041 15042     9 
15040 15039 15041 15043     9 
15040 15039 15041 15053     9 
15039 15041 15053 15054     9 
15039 15041 15053 15055     9 
15039 15041 15053 15056     9 
15042 15041 15053 15054     9 
15042 15041 15053 15055     9 
15042 15041 15053 15056     9 
15043 15041 15053 15054     9 
15043 15041 15053 15055     9 
15043 15041 15053 15056     9 
15036 15044 15047 15048     9 
15045 15044 15047 15048     9 
15046 15044 15047 15048     9 
15044 15047 15048 15049     9 
15044 15047 15048 15050     9 
15047 15048 15050 15051     9 
15047 15048 15050 15052     9 
15047 15048 15050 15100     9 
15049 15048 15050 15051     9 
15049 15048 15050 15052     9 
15049 15048 15050 15100     9 
15048 15050 15100 15101     9 
15048 15050 15100 15102     9 
15048 15050 15100 15103     9 
15051 15050 15100 15101     9 
15051 15050 15100 15102     9 
15051 15050 15100 15103     9 
15052 15050 15100 15101     9 
15052 15050 15100 15102     9 
15052 15050 15100 15103     9 
15041 15053 15056 15057     9 
15041 15053 15056 15058     9 
15041 15053 15056 15059     9 
15054 15053 15056 15057     9 
15054 15053 15056 15058     9 
15054 15053 15056 15059     9 
15055 15053 15056 15057     9 
15055 15053 15056 15058     9 
15055 15053 15056 15059     9 
15053 15056 15059 15060     9 
15053 15056 15059 15061     9 
15053 15056 15059 15062     9 
15057 15056 15059 15060     9 
15057 15056 15059 15061     9 
15057 15056 15059 15062     9 
15058 15056 15059 15060     9 
15058 15056 15059 15061     9 
15058 15056 15059 15062     9 
15056 15059 15062 15063     9 
15056 15059 15062 15064     9 
15056 15059 15062 15065     9 
15060 15059 15062 15063     9 
15060 15059 15062 15064     9 
15060 15059 15062 15065     9 
15061 15059 15062 15063     9 
15061 15059 15062 15064     9 
15061 15059 15062 15065     9 
15059 15062 15065 15066     9 
15059 15062 15065 15067     9 
15059 15062 15065 15068     9 
15063 15062 15065 15066     9 
15063 15062 15065 15067     9 
15063 15062 15065 15068     9 
15064 15062 15065 15066     9 
15064 15062 15065 15067     9 
15064 15062 15065 15068     9 
15062 15065 15068 15069     9 
15062 15065 15068 15070     9 
15062 15065 15068 15071     9 
15066 15065 15068 15069     9 
15066 15065 15068 15070     9 
15066 15065 15068 15071     9 
15067 15065 15068 15069     9 
15067 15065 15068 15070     9 
15067 15065 15068 15071     9 
15065 15068 15071 15072     9 
15065 15068 15071 15073     9 
15069 15068 15071 15072     9 
15069 15068 15071 15073     9 
15070 15068 15071 15072     9 
15070 15068 15071 15073     9 
15068 15071 15073 15074     9 
15068 15071 15073 15075     9 
15072 15071 15073 15074     9 
15072 15071 15073 15075     9 
15071 15073 15075 15076     9 
15071 15073 15075 15077     9 
15071 15073 15075 15078     9 
15074 15073 15075 15076     9 
15074 15073 15075 15077     9 
15074 15073 15075 15078     9 
15073 15075 15078 15079     9 
15073 15075 15078 15080     9 
15073 15075 15078 15081     9 
15076 15075 15078 15079     9 
15076 15075 15078 15080     9 
15076 15075 15078 15081     9 
15077 15075 15078 15079     9 
15077 15075 15078 15080     9 
15077 15075 15078 15081     9 
15075 15078 15081 15082     9 
15075 15078 15081 15083     9 
15075 15078 15081 15084     9 
15079 15078 15081 15082     9 
15079 15078 15081 15083     9 
15079 15078 15081 15084     9 
15080 15078 15081 15082     9 
15080 15078 15081 15083     9 
15080 15078 15081 15084     9 
15078 15081 15084 15085     9 
15078 15081 15084 15086     9 
15078 15081 15084 15087     9 
15082 15081 15084 15085     9 
15082 15081 15084 15086     9 
15082 15081 15084 15087     9 
15083 15081 15084 15085     9 
15083 15081 15084 15086     9 
15083 15081 15084 15087     9 
15081 15084 15087 15088     9 
15081 15084 15087 15089     9 
15081 15084 15087 15090     9 
15085 15084 15087 15088     9 
15085 15084 15087 15089     9 
15085 15084 15087 15090     9 
15086 15084 15087 15088     9 
15086 15084 15087 15089     9 
15086 15084 15087 15090     9 
15084 15087 15090 15091     9 
15084 15087 15090 15092     9 
15084 15087 15090 15093     9 
15088 15087 15090 15091     9 
15088 15087 15090 15092     9 
15088 15087 15090 15093     9 
15089 15087 15090 15091     9 
15089 15087 15090 15092     9 
15089 15087 15090 15093     9 
15087 15090 15093 15094     9 
15087 15090 15093 15095     9 
15087 15090 15093 15096     9 
15091 15090 15093 15094     9 
15091 15090 15093 15095     9 
15091 15090 15093 15096     9 
15092 15090 15093 15094     9 
15092 15090 15093 15095     9 
15092 15090 15093 15096     9 
15090 15093 15096 15097     9 
15090 15093 15096 15098     9 
15090 15093 15096 15099     9 
15094 15093 15096 15097     9 
15094 15093 15096 15098     9 
15094 15093 15096 15099     9 
15095 15093 15096 15097     9 
15095 15093 15096 15098     9 
15095 15093 15096 15099     9 
15050 15100 15103 15104     9 
15050 15100 15103 15105     9 
15050 15100 15103 15106     9 
15101 15100 15103 15104     9 
15101 15100 15103 15105     9 
15101 15100 15103 15106     9 
15102 15100 15103 15104     9 
15102 15100 15103 15105     9 
15102 15100 15103 15106     9 
15100 15103 15106 15107     9 
15100 15103 15106 15108     9 
15100 15103 15106 15109     9 
15104 15103 15106 15107     9 
15104 15103 15106 15108     9 
15104 15103 15106 15109     9 
15105 15103 15106 15107     9 
15105 15103 15106 15108     9 
15105 15103 15106 15109     9 
15103 15106 15109 15110     9 
15103 15106 15109 15111     9 
15103 15106 15109 15112     9 
15107 15106 15109 15110     9 
15107 15106 15109 15111     9 
15107 15106 15109 15112     9 
15108 15106 15109 15110     9 
15108 15106 15109 15111     9 
15108 15106 15109 15112     9 
15106 15109 15112 15113     9 
15106 15109 15112 15114     9 
15106 15109 15112 15115     9 
15110 15109 15112 15113     9 
15110 15109 15112 15114     9 
15110 15109 15112 15115     9 
15111 15109 15112 15113     9 
15111 15109 15112 15114     9 
15111 15109 15112 15115     9 
15109 15112 15115 15116     9 
15109 15112 15115 15117     9 
15109 15112 15115 15118     9 
15113 15112 15115 15116     9 
15113 15112 15115 15117     9 
15113 15112 15115 15118     9 
15114 15112 15115 15116     9 
15114 15112 15115 15117     9 
15114 15112 15115 15118     9 
15112 15115 15118 15119     9 
15112 15115 15118 15120     9 
15112 15115 15118 15121     9 
15116 15115 15118 15119     9 
15116 15115 15118 15120     9 
15116 15115 15118 15121     9 
15117 15115 15118 15119     9 
15117 15115 15118 15120     9 
15117 15115 15118 15121     9 
15115 15118 15121 15122     9 
15115 15118 15121 15123     9 
15115 15118 15121 15124     9 
15119 15118 15121 15122     9 
15119 15118 15121 15123     9 
15119 15118 15121 15124     9 
15120 15118 15121 15122     9 
15120 15118 15121 15123     9 
15120 15118 15121 15124     9 
15118 15121 15124 15125     9 
15118 15121 15124 15126     9 
15118 15121 15124 15127     9 
15122 15121 15124 15125     9 
15122 15121 15124 15126     9 
15122 15121 15124 15127     9 
15123 15121 15124 15125     9 
15123 15121 15124 15126     9 
15123 15121 15124 15127     9 
15121 15124 15127 15128     9 
15121 15124 15127 15129     9 
15121 15124 15127 15130     9 
15125 15124 15127 15128     9 
15125 15124 15127 15129     9 
15125 15124 15127 15130     9 
15126 15124 15127 15128     9 
15126 15124 15127 15129     9 
15126 15124 15127 15130     9 
15124 15127 15130 15131     9 
15124 15127 15130 15132     9 
15124 15127 15130 15133     9 
15128 15127 15130 15131     9 
15128 15127 15130 15132     9 
15128 15127 15130 15133     9 
15129 15127 15130 15131     9 
15129 15127 15130 15132     9 
15129 15127 15130 15133     9 
15127 15130 15133 15134     9 
15127 15130 15133 15135     9 
15127 15130 15133 15136     9 
15131 15130 15133 15134     9 
15131 15130 15133 15135     9 
15131 15130 15133 15136     9 
15132 15130 15133 15134     9 
15132 15130 15133 15135     9 
15132 15130 15133 15136     9 
15130 15133 15136 15137     9 
15130 15133 15136 15138     9 
15130 15133 15136 15139     9 
15134 15133 15136 15137     9 
15134 15133 15136 15138     9 
15134 15133 15136 15139     9 
15135 15133 15136 15137     9 
15135 15133 15136 15138     9 
15135 15133 15136 15139     9 
15133 15136 15139 15140     9 
15133 15136 15139 15141     9 
15133 15136 15139 15142     9 
15137 15136 15139 15140     9 
15137 15136 15139 15141     9 
15137 15136 15139 15142     9 
15138 15136 15139 15140     9 
15138 15136 15139 15141     9 
15138 15136 15139 15142     9 
15147 15143 15144 15145     9 
15147 15143 15144 15146     9 
15147 15143 15144 15159     9 
15151 15143 15144 15145     9 
15151 15143 15144 15146     9 
15151 15143 15144 15159     9 
15155 15143 15144 15145     9 
15155 15143 15144 15146     9 
15155 15143 15144 15159     9 
15144 15143 15147 15148     9 
15144 15143 15147 15149     9 
15144 15143 15147 15150     9 
15151 15143 15147 15148     9 
15151 15143 15147 15149     9 
15151 15143 15147 15150     9 
15155 15143 15147 15148     9 
15155 15143 15147 15149     9 
15155 15143 15147 15150     9 
15144 15143 15151 15152     9 
15144 15143 15151 15153     9 
15144 15143 15151 15154     9 
15147 15143 15151 15152     9 
15147 15143 15151 15153     9 
15147 15143 15151 15154     9 
15155 15143 15151 15152     9 
15155 15143 15151 15153     9 
15155 15143 15151 15154     9 
15144 15143 15155 15156     9 
15144 15143 15155 15157     9 
15144 15143 15155 15158     9 
15147 15143 15155 15156     9 
15147 15143 15155 15157     9 
15147 15143 15155 15158     9 
15151 15143 15155 15156     9 
15151 15143 15155 15157     9 
15151 15143 15155 15158     9 
15143 15144 15159 15160     9 
15143 15144 15159 15161     9 
15143 15144 15159 15165     9 
15145 15144 15159 15160     9 
15145 15144 15159 15161     9 
15145 15144 15159 15165     9 
15146 15144 15159 15160     9 
15146 15144 15159 15161     9 
15146 15144 15159 15165     9 
15144 15159 15165 15162     9 
15160 15159 15165 15162     9 
15161 15159 15165 15162     9 
15163 15162 15165 15159     9 
15164 15162 15165 15159     9 
15166 15162 15165 15159     9 
15163 15162 15166 15167     9 
15164 15162 15166 15167     9 
15165 15162 15166 15167     9 
15162 15166 15167 15168     9 
15162 15166 15167 15169     9 
15162 15166 15167 15170     9 
15166 15167 15170 15171     9 
15166 15167 15170 15172     9 
15166 15167 15170 15178     9 
15168 15167 15170 15171     9 
15168 15167 15170 15172     9 
15168 15167 15170 15178     9 
15169 15167 15170 15171     9 
15169 15167 15170 15172     9 
15169 15167 15170 15178     9 
15167 15170 15172 15173     9 
15171 15170 15172 15173     9 
15178 15170 15172 15173     9 
15167 15170 15178 15179     9 
15167 15170 15178 15180     9 
15167 15170 15178 15181     9 
15171 15170 15178 15179     9 
15171 15170 15178 15180     9 
15171 15170 15178 15181     9 
15172 15170 15178 15179     9 
15172 15170 15178 15180     9 
15172 15170 15178 15181     9 
15170 15172 15173 15174     9 
15170 15172 15173 15175     9 
15172 15173 15175 15176     9 
15172 15173 15175 15177     9 
15172 15173 15175 15187     9 
15174 15173 15175 15176     9 
15174 15173 15175 15177     9 
15174 15173 15175 15187     9 
15173 15175 15187 15188     9 
15173 15175 15187 15189     9 
15173 15175 15187 15190     9 
15176 15175 15187 15188     9 
15176 15175 15187 15189     9 
15176 15175 15187 15190     9 
15177 15175 15187 15188     9 
15177 15175 15187 15189     9 
15177 15175 15187 15190     9 
15170 15178 15181 15182     9 
15179 15178 15181 15182     9 
15180 15178 15181 15182     9 
15178 15181 15182 15183     9 
15178 15181 15182 15184     9 
15181 15182 15184 15185     9 
15181 15182 15184 15186     9 
15181 15182 15184 15234     9 
15183 15182 15184 15185     9 
15183 15182 15184 15186     9 
15183 15182 15184 15234     9 
15182 15184 15234 15235     9 
15182 15184 15234 15236     9 
15182 15184 15234 15237     9 
15185 15184 15234 15235     9 
15185 15184 15234 15236     9 
15185 15184 15234 15237     9 
15186 15184 15234 15235     9 
15186 15184 15234 15236     9 
15186 15184 15234 15237     9 
15175 15187 15190 15191     9 
15175 15187 15190 15192     9 
15175 15187 15190 15193     9 
15188 15187 15190 15191     9 
15188 15187 15190 15192     9 
15188 15187 15190 15193     9 
15189 15187 15190 15191     9 
15189 15187 15190 15192     9 
15189 15187 15190 15193     9 
15187 15190 15193 15194     9 
15187 15190 15193 15195     9 
15187 15190 15193 15196     9 
15191 15190 15193 15194     9 
15191 15190 15193 15195     9 
15191 15190 15193 15196     9 
15192 15190 15193 15194     9 
15192 15190 15193 15195     9 
15192 15190 15193 15196     9 
15190 15193 15196 15197     9 
15190 15193 15196 15198     9 
15190 15193 15196 15199     9 
15194 15193 15196 15197     9 
15194 15193 15196 15198     9 
15194 15193 15196 15199     9 
15195 15193 15196 15197     9 
15195 15193 15196 15198     9 
15195 15193 15196 15199     9 
15193 15196 15199 15200     9 
15193 15196 15199 15201     9 
15193 15196 15199 15202     9 
15197 15196 15199 15200     9 
15197 15196 15199 15201     9 
15197 15196 15199 15202     9 
15198 15196 15199 15200     9 
15198 15196 15199 15201     9 
15198 15196 15199 15202     9 
15196 15199 15202 15203     9 
15196 15199 15202 15204     9 
15196 15199 15202 15205     9 
15200 15199 15202 15203     9 
15200 15199 15202 15204     9 
15200 15199 15202 15205     9 
15201 15199 15202 15203     9 
15201 15199 15202 15204     9 
15201 15199 15202 15205     9 
15199 15202 15205 15206     9 
15199 15202 15205 15207     9 
15203 15202 15205 15206     9 
15203 15202 15205 15207     9 
15204 15202 15205 15206     9 
15204 15202 15205 15207     9 
15202 15205 15207 15208     9 
15202 15205 15207 15209     9 
15206 15205 15207 15208     9 
15206 15205 15207 15209     9 
15205 15207 15209 15210     9 
15205 15207 15209 15211     9 
15205 15207 15209 15212     9 
15208 15207 15209 15210     9 
15208 15207 15209 15211     9 
15208 15207 15209 15212     9 
15207 15209 15212 15213     9 
15207 15209 15212 15214     9 
15207 15209 15212 15215     9 
15210 15209 15212 15213     9 
15210 15209 15212 15214     9 
15210 15209 15212 15215     9 
15211 15209 15212 15213     9 
15211 15209 15212 15214     9 
15211 15209 15212 15215     9 
15209 15212 15215 15216     9 
15209 15212 15215 15217     9 
15209 15212 15215 15218     9 
15213 15212 15215 15216     9 
15213 15212 15215 15217     9 
15213 15212 15215 15218     9 
15214 15212 15215 15216     9 
15214 15212 15215 15217     9 
15214 15212 15215 15218     9 
15212 15215 15218 15219     9 
15212 15215 15218 15220     9 
15212 15215 15218 15221     9 
15216 15215 15218 15219     9 
15216 15215 15218 15220     9 
15216 15215 15218 15221     9 
15217 15215 15218 15219     9 
15217 15215 15218 15220     9 
15217 15215 15218 15221     9 
15215 15218 15221 15222     9 
15215 15218 15221 15223     9 
15215 15218 15221 15224     9 
15219 15218 15221 15222     9 
15219 15218 15221 15223     9 
15219 15218 15221 15224     9 
15220 15218 15221 15222     9 
15220 15218 15221 15223     9 
15220 15218 15221 15224     9 
15218 15221 15224 15225     9 
15218 15221 15224 15226     9 
15218 15221 15224 15227     9 
15222 15221 15224 15225     9 
15222 15221 15224 15226     9 
15222 15221 15224 15227     9 
15223 15221 15224 15225     9 
15223 15221 15224 15226     9 
15223 15221 15224 15227     9 
15221 15224 15227 15228     9 
15221 15224 15227 15229     9 
15221 15224 15227 15230     9 
15225 15224 15227 15228     9 
15225 15224 15227 15229     9 
15225 15224 15227 15230     9 
15226 15224 15227 15228     9 
15226 15224 15227 15229     9 
15226 15224 15227 15230     9 
15224 15227 15230 15231     9 
15224 15227 15230 15232     9 
15224 15227 15230 15233     9 
15228 15227 15230 15231     9 
15228 15227 15230 15232     9 
15228 15227 15230 15233     9 
15229 15227 15230 15231     9 
15229 15227 15230 15232     9 
15229 15227 15230 15233     9 
15184 15234 15237 15238     9 
15184 15234 15237 15239     9 
15184 15234 15237 15240     9 
15235 15234 15237 15238     9 
15235 15234 15237 15239     9 
15235 15234 15237 15240     9 
15236 15234 15237 15238     9 
15236 15234 15237 15239     9 
15236 15234 15237 15240     9 
15234 15237 15240 15241     9 
15234 15237 15240 15242     9 
15234 15237 15240 15243     9 
15238 15237 15240 15241     9 
15238 15237 15240 15242     9 
15238 15237 15240 15243     9 
15239 15237 15240 15241     9 
15239 15237 15240 15242     9 
15239 15237 15240 15243     9 
15237 15240 15243 15244     9 
15237 15240 15243 15245     9 
15237 15240 15243 15246     9 
15241 15240 15243 15244     9 
15241 15240 15243 15245     9 
15241 15240 15243 15246     9 
15242 15240 15243 15244     9 
15242 15240 15243 15245     9 
15242 15240 15243 15246     9 
15240 15243 15246 15247     9 
15240 15243 15246 15248     9 
15240 15243 15246 15249     9 
15244 15243 15246 15247     9 
15244 15243 15246 15248     9 
15244 15243 15246 15249     9 
15245 15243 15246 15247     9 
15245 15243 15246 15248     9 
15245 15243 15246 15249     9 
15243 15246 15249 15250     9 
15243 15246 15249 15251     9 
15243 15246 15249 15252     9 
15247 15246 15249 15250     9 
15247 15246 15249 15251     9 
15247 15246 15249 15252     9 
15248 15246 15249 15250     9 
15248 15246 15249 15251     9 
15248 15246 15249 15252     9 
15246 15249 15252 15253     9 
15246 15249 15252 15254     9 
15246 15249 15252 15255     9 
15250 15249 15252 15253     9 
15250 15249 15252 15254     9 
15250 15249 15252 15255     9 
15251 15249 15252 15253     9 
15251 15249 15252 15254     9 
15251 15249 15252 15255     9 
15249 15252 15255 15256     9 
15249 15252 15255 15257     9 
15249 15252 15255 15258     9 
15253 15252 15255 15256     9 
15253 15252 15255 15257     9 
15253 15252 15255 15258     9 
15254 15252 15255 15256     9 
15254 15252 15255 15257     9 
15254 15252 15255 15258     9 
15252 15255 15258 15259     9 
15252 15255 15258 15260     9 
15252 15255 15258 15261     9 
15256 15255 15258 15259     9 
15256 15255 15258 15260     9 
15256 15255 15258 15261     9 
15257 15255 15258 15259     9 
15257 15255 15258 15260     9 
15257 15255 15258 15261     9 
15255 15258 15261 15262     9 
15255 15258 15261 15263     9 
15255 15258 15261 15264     9 
15259 15258 15261 15262     9 
15259 15258 15261 15263     9 
15259 15258 15261 15264     9 
15260 15258 15261 15262     9 
15260 15258 15261 15263     9 
15260 15258 15261 15264     9 
15258 15261 15264 15265     9 
15258 15261 15264 15266     9 
15258 15261 15264 15267     9 
15262 15261 15264 15265     9 
15262 15261 15264 15266     9 
15262 15261 15264 15267     9 
15263 15261 15264 15265     9 
15263 15261 15264 15266     9 
15263 15261 15264 15267     9 
15261 15264 15267 15268     9 
15261 15264 15267 15269     9 
15261 15264 15267 15270     9 
15265 15264 15267 15268     9 
15265 15264 15267 15269     9 
15265 15264 15267 15270     9 
15266 15264 15267 15268     9 
15266 15264 15267 15269     9 
15266 15264 15267 15270     9 
15264 15267 15270 15271     9 
15264 15267 15270 15272     9 
15264 15267 15270 15273     9 
15268 15267 15270 15271     9 
15268 15267 15270 15272     9 
15268 15267 15270 15273     9 
15269 15267 15270 15271     9 
15269 15267 15270 15272     9 
15269 15267 15270 15273     9 
15267 15270 15273 15274     9 
15267 15270 15273 15275     9 
15267 15270 15273 15276     9 
15271 15270 15273 15274     9 
15271 15270 15273 15275     9 
15271 15270 15273 15276     9 
15272 15270 15273 15274     9 
15272 15270 15273 15275     9 
15272 15270 15273 15276     9 
15281 15277 15278 15279     9 
15281 15277 15278 15280     9 
15281 15277 15278 15293     9 
15285 15277 15278 15279     9 
15285 15277 15278 15280     9 
15285 15277 15278 15293     9 
15289 15277 15278 15279     9 
15289 15277 15278 15280     9 
15289 15277 15278 15293     9 
15278 15277 15281 15282     9 
15278 15277 15281 15283     9 
15278 15277 15281 15284     9 
15285 15277 15281 15282     9 
15285 15277 15281 15283     9 
15285 15277 15281 15284     9 
15289 15277 15281 15282     9 
15289 15277 15281 15283     9 
15289 15277 15281 15284     9 
15278 15277 15285 15286     9 
15278 15277 15285 15287     9 
15278 15277 15285 15288     9 
15281 15277 15285 15286     9 
15281 15277 15285 15287     9 
15281 15277 15285 15288     9 
15289 15277 15285 15286     9 
15289 15277 15285 15287     9 
15289 15277 15285 15288     9 
15278 15277 15289 15290     9 
15278 15277 15289 15291     9 
15278 15277 15289 15292     9 
15281 15277 15289 15290     9 
15281 15277 15289 15291     9 
15281 15277 15289 15292     9 
15285 15277 15289 15290     9 
15285 15277 15289 15291     9 
15285 15277 15289 15292     9 
15277 15278 15293 15294     9 
15277 15278 15293 15295     9 
15277 15278 15293 15299     9 
15279 15278 15293 15294     9 
15279 15278 15293 15295     9 
15279 15278 15293 15299     9 
15280 15278 15293 15294     9 
15280 15278 15293 15295     9 
15280 15278 15293 15299     9 
15278 15293 15299 15296     9 
15294 15293 15299 15296     9 
15295 15293 15299 15296     9 
15297 15296 15299 15293     9 
15298 15296 15299 15293     9 
15300 15296 15299 15293     9 
15297 15296 15300 15301     9 
15298 15296 15300 15301     9 
15299 15296 15300 15301     9 
15296 15300 15301 15302     9 
15296 15300 15301 15303     9 
15296 15300 15301 15304     9 
15300 15301 15304 15305     9 
15300 15301 15304 15306     9 
15300 15301 15304 15312     9 
15302 15301 15304 15305     9 
15302 15301 15304 15306     9 
15302 15301 15304 15312     9 
15303 15301 15304 15305     9 
15303 15301 15304 15306     9 
15303 15301 15304 15312     9 
15301 15304 15306 15307     9 
15305 15304 15306 15307     9 
15312 15304 15306 15307     9 
15301 15304 15312 15313     9 
15301 15304 15312 15314     9 
15301 15304 15312 15315     9 
15305 15304 15312 15313     9 
15305 15304 15312 15314     9 
15305 15304 15312 15315     9 
15306 15304 15312 15313     9 
15306 15304 15312 15314     9 
15306 15304 15312 15315     9 
15304 15306 15307 15308     9 
15304 15306 15307 15309     9 
15306 15307 15309 15310     9 
15306 15307 15309 15311     9 
15306 15307 15309 15321     9 
15308 15307 15309 15310     9 
15308 15307 15309 15311     9 
15308 15307 15309 15321     9 
15307 15309 15321 15322     9 
15307 15309 15321 15323     9 
15307 15309 15321 15324     9 
15310 15309 15321 15322     9 
15310 15309 15321 15323     9 
15310 15309 15321 15324     9 
15311 15309 15321 15322     9 
15311 15309 15321 15323     9 
15311 15309 15321 15324     9 
15304 15312 15315 15316     9 
15313 15312 15315 15316     9 
15314 15312 15315 15316     9 
15312 15315 15316 15317     9 
15312 15315 15316 15318     9 
15315 15316 15318 15319     9 
15315 15316 15318 15320     9 
15315 15316 15318 15368     9 
15317 15316 15318 15319     9 
15317 15316 15318 15320     9 
15317 15316 15318 15368     9 
15316 15318 15368 15369     9 
15316 15318 15368 15370     9 
15316 15318 15368 15371     9 
15319 15318 15368 15369     9 
15319 15318 15368 15370     9 
15319 15318 15368 15371     9 
15320 15318 15368 15369     9 
15320 15318 15368 15370     9 
15320 15318 15368 15371     9 
15309 15321 15324 15325     9 
15309 15321 15324 15326     9 
15309 15321 15324 15327     9 
15322 15321 15324 15325     9 
15322 15321 15324 15326     9 
15322 15321 15324 15327     9 
15323 15321 15324 15325     9 
15323 15321 15324 15326     9 
15323 15321 15324 15327     9 
15321 15324 15327 15328     9 
15321 15324 15327 15329     9 
15321 15324 15327 15330     9 
15325 15324 15327 15328     9 
15325 15324 15327 15329     9 
15325 15324 15327 15330     9 
15326 15324 15327 15328     9 
15326 15324 15327 15329     9 
15326 15324 15327 15330     9 
15324 15327 15330 15331     9 
15324 15327 15330 15332     9 
15324 15327 15330 15333     9 
15328 15327 15330 15331     9 
15328 15327 15330 15332     9 
15328 15327 15330 15333     9 
15329 15327 15330 15331     9 
15329 15327 15330 15332     9 
15329 15327 15330 15333     9 
15327 15330 15333 15334     9 
15327 15330 15333 15335     9 
15327 15330 15333 15336     9 
15331 15330 15333 15334     9 
15331 15330 15333 15335     9 
15331 15330 15333 15336     9 
15332 15330 15333 15334     9 
15332 15330 15333 15335     9 
15332 15330 15333 15336     9 
15330 15333 15336 15337     9 
15330 15333 15336 15338     9 
15330 15333 15336 15339     9 
15334 15333 15336 15337     9 
15334 15333 15336 15338     9 
15334 15333 15336 15339     9 
15335 15333 15336 15337     9 
15335 15333 15336 15338     9 
15335 15333 15336 15339     9 
15333 15336 15339 15340     9 
15333 15336 15339 15341     9 
15337 15336 15339 15340     9 
15337 15336 15339 15341     9 
15338 15336 15339 15340     9 
15338 15336 15339 15341     9 
15336 15339 15341 15342     9 
15336 15339 15341 15343     9 
15340 15339 15341 15342     9 
15340 15339 15341 15343     9 
15339 15341 15343 15344     9 
15339 15341 15343 15345     9 
15339 15341 15343 15346     9 
15342 15341 15343 15344     9 
15342 15341 15343 15345     9 
15342 15341 15343 15346     9 
15341 15343 15346 15347     9 
15341 15343 15346 15348     9 
15341 15343 15346 15349     9 
15344 15343 15346 15347     9 
15344 15343 15346 15348     9 
15344 15343 15346 15349     9 
15345 15343 15346 15347     9 
15345 15343 15346 15348     9 
15345 15343 15346 15349     9 
15343 15346 15349 15350     9 
15343 15346 15349 15351     9 
15343 15346 15349 15352     9 
15347 15346 15349 15350     9 
15347 15346 15349 15351     9 
15347 15346 15349 15352     9 
15348 15346 15349 15350     9 
15348 15346 15349 15351     9 
15348 15346 15349 15352     9 
15346 15349 15352 15353     9 
15346 15349 15352 15354     9 
15346 15349 15352 15355     9 
15350 15349 15352 15353     9 
15350 15349 15352 15354     9 
15350 15349 15352 15355     9 
15351 15349 15352 15353     9 
15351 15349 15352 15354     9 
15351 15349 15352 15355     9 
15349 15352 15355 15356     9 
15349 15352 15355 15357     9 
15349 15352 15355 15358     9 
15353 15352 15355 15356     9 
15353 15352 15355 15357     9 
15353 15352 15355 15358     9 
15354 15352 15355 15356     9 
15354 15352 15355 15357     9 
15354 15352 15355 15358     9 
15352 15355 15358 15359     9 
15352 15355 15358 15360     9 
15352 15355 15358 15361     9 
15356 15355 15358 15359     9 
15356 15355 15358 15360     9 
15356 15355 15358 15361     9 
15357 15355 15358 15359     9 
15357 15355 15358 15360     9 
15357 15355 15358 15361     9 
15355 15358 15361 15362     9 
15355 15358 15361 15363     9 
15355 15358 15361 15364     9 
15359 15358 15361 15362     9 
15359 15358 15361 15363     9 
15359 15358 15361 15364     9 
15360 15358 15361 15362     9 
15360 15358 15361 15363     9 
15360 15358 15361 15364     9 
15358 15361 15364 15365     9 
15358 15361 15364 15366     9 
15358 15361 15364 15367     9 
15362 15361 15364 15365     9 
15362 15361 15364 15366     9 
15362 15361 15364 15367     9 
15363 15361 15364 15365     9 
15363 15361 15364 15366     9 
15363 15361 15364 15367     9 
15318 15368 15371 15372     9 
15318 15368 15371 15373     9 
15318 15368 15371 15374     9 
15369 15368 15371 15372     9 
15369 15368 15371 15373     9 
15369 15368 15371 15374     9 
15370 15368 15371 15372     9 
15370 15368 15371 15373     9 
15370 15368 15371 15374     9 
15368 15371 15374 15375     9 
15368 15371 15374 15376     9 
15368 15371 15374 15377     9 
15372 15371 15374 15375     9 
15372 15371 15374 15376     9 
15372 15371 15374 15377     9 
15373 15371 15374 15375     9 
15373 15371 15374 15376     9 
15373 15371 15374 15377     9 
15371 15374 15377 15378     9 
15371 15374 15377 15379     9 
15371 15374 15377 15380     9 
15375 15374 15377 15378     9 
15375 15374 15377 15379     9 
15375 15374 15377 15380     9 
15376 15374 15377 15378     9 
15376 15374 15377 15379     9 
15376 15374 15377 15380     9 
15374 15377 15380 15381     9 
15374 15377 15380 15382     9 
15374 15377 15380 15383     9 
15378 15377 15380 15381     9 
15378 15377 15380 15382     9 
15378 15377 15380 15383     9 
15379 15377 15380 15381     9 
15379 15377 15380 15382     9 
15379 15377 15380 15383     9 
15377 15380 15383 15384     9 
15377 15380 15383 15385     9 
15377 15380 15383 15386     9 
15381 15380 15383 15384     9 
15381 15380 15383 15385     9 
15381 15380 15383 15386     9 
15382 15380 15383 15384     9 
15382 15380 15383 15385     9 
15382 15380 15383 15386     9 
15380 15383 15386 15387     9 
15380 15383 15386 15388     9 
15380 15383 15386 15389     9 
15384 15383 15386 15387     9 
15384 15383 15386 15388     9 
15384 15383 15386 15389     9 
15385 15383 15386 15387     9 
15385 15383 15386 15388     9 
15385 15383 15386 15389     9 
15383 15386 15389 15390     9 
15383 15386 15389 15391     9 
15383 15386 15389 15392     9 
15387 15386 15389 15390     9 
15387 15386 15389 15391     9 
15387 15386 15389 15392     9 
15388 15386 15389 15390     9 
15388 15386 15389 15391     9 
15388 15386 15389 15392     9 
15386 15389 15392 15393     9 
15386 15389 15392 15394     9 
15386 15389 15392 15395     9 
15390 15389 15392 15393     9 
15390 15389 15392 15394     9 
15390 15389 15392 15395     9 
15391 15389 15392 15393     9 
15391 15389 15392 15394     9 
15391 15389 15392 15395     9 
15389 15392 15395 15396     9 
15389 15392 15395 15397     9 
15389 15392 15395 15398     9 
15393 15392 15395 15396     9 
15393 15392 15395 15397     9 
15393 15392 15395 15398     9 
15394 15392 15395 15396     9 
15394 15392 15395 15397     9 
15394 15392 15395 15398     9 
15392 15395 15398 15399     9 
15392 15395 15398 15400     9 
15392 15395 15398 15401     9 
15396 15395 15398 15399     9 
15396 15395 15398 15400     9 
15396 15395 15398 15401     9 
15397 15395 15398 15399     9 
15397 15395 15398 15400     9 
15397 15395 15398 15401     9 
15395 15398 15401 15402     9 
15395 15398 15401 15403     9 
15395 15398 15401 15404     9 
15399 15398 15401 15402     9 
15399 15398 15401 15403     9 
15399 15398 15401 15404     9 
15400 15398 15401 15402     9 
15400 15398 15401 15403     9 
15400 15398 15401 15404     9 
15398 15401 15404 15405     9 
15398 15401 15404 15406     9 
15398 15401 15404 15407     9 
15402 15401 15404 15405     9 
15402 15401 15404 15406     9 
15402 15401 15404 15407     9 
15403 15401 15404 15405     9 
15403 15401 15404 15406     9 
15403 15401 15404 15407     9 
15401 15404 15407 15408     9 
15401 15404 15407 15409     9 
15401 15404 15407 15410     9 
15405 15404 15407 15408     9 
15405 15404 15407 15409     9 
15405 15404 15407 15410     9 
15406 15404 15407 15408     9 
15406 15404 15407 15409     9 
15406 15404 15407 15410     9 
15415 15411 15412 15413     9 
15415 15411 15412 15414     9 
15415 15411 15412 15427     9 
15419 15411 15412 15413     9 
15419 15411 15412 15414     9 
15419 15411 15412 15427     9 
15423 15411 15412 15413     9 
15423 15411 15412 15414     9 
15423 15411 15412 15427     9 
15412 15411 15415 15416     9 
15412 15411 15415 15417     9 
15412 15411 15415 15418     9 
15419 15411 15415 15416     9 
15419 15411 15415 15417     9 
15419 15411 15415 15418     9 
15423 15411 15415 15416     9 
15423 15411 15415 15417     9 
15423 15411 15415 15418     9 
15412 15411 15419 15420     9 
15412 15411 15419 15421     9 
15412 15411 15419 15422     9 
15415 15411 15419 15420     9 
15415 15411 15419 15421     9 
15415 15411 15419 15422     9 
15423 15411 15419 15420     9 
15423 15411 15419 15421     9 
15423 15411 15419 15422     9 
15412 15411 15423 15424     9 
15412 15411 15423 15425     9 
15412 15411 15423 15426     9 
15415 15411 15423 15424     9 
15415 15411 15423 15425     9 
15415 15411 15423 15426     9 
15419 15411 15423 15424     9 
15419 15411 15423 15425     9 
15419 15411 15423 15426     9 
15411 15412 15427 15428     9 
15411 15412 15427 15429     9 
15411 15412 15427 15433     9 
15413 15412 15427 15428     9 
15413 15412 15427 15429     9 
15413 15412 15427 15433     9 
15414 15412 15427 15428     9 
15414 15412 15427 15429     9 
15414 15412 15427 15433     9 
15412 15427 15433 15430     9 
15428 15427 15433 15430     9 
15429 15427 15433 15430     9 
15431 15430 15433 15427     9 
15432 15430 15433 15427     9 
15434 15430 15433 15427     9 
15431 15430 15434 15435     9 
15432 15430 15434 15435     9 
15433 15430 15434 15435     9 
15430 15434 15435 15436     9 
15430 15434 15435 15437     9 
15430 15434 15435 15438     9 
15434 15435 15438 15439     9 
15434 15435 15438 15440     9 
15434 15435 15438 15446     9 
15436 15435 15438 15439     9 
15436 15435 15438 15440     9 
15436 15435 15438 15446     9 
15437 15435 15438 15439     9 
15437 15435 15438 15440     9 
15437 15435 15438 15446     9 
15435 15438 15440 15441     9 
15439 15438 15440 15441     9 
15446 15438 15440 15441     9 
15435 15438 15446 15447     9 
15435 15438 15446 15448     9 
15435 15438 15446 15449     9 
15439 15438 15446 15447     9 
15439 15438 15446 15448     9 
15439 15438 15446 15449     9 
15440 15438 15446 15447     9 
15440 15438 15446 15448     9 
15440 15438 15446 15449     9 
15438 15440 15441 15442     9 
15438 15440 15441 15443     9 
15440 15441 15443 15444     9 
15440 15441 15443 15445     9 
15440 15441 15443 15455     9 
15442 15441 15443 15444     9 
15442 15441 15443 15445     9 
15442 15441 15443 15455     9 
15441 15443 15455 15456     9 
15441 15443 15455 15457     9 
15441 15443 15455 15458     9 
15444 15443 15455 15456     9 
15444 15443 15455 15457     9 
15444 15443 15455 15458     9 
15445 15443 15455 15456     9 
15445 15443 15455 15457     9 
15445 15443 15455 15458     9 
15438 15446 15449 15450     9 
15447 15446 15449 15450     9 
15448 15446 15449 15450     9 
15446 15449 15450 15451     9 
15446 15449 15450 15452     9 
15449 15450 15452 15453     9 
15449 15450 15452 15454     9 
15449 15450 15452 15502     9 
15451 15450 15452 15453     9 
15451 15450 15452 15454     9 
15451 15450 15452 15502     9 
15450 15452 15502 15503     9 
15450 15452 15502 15504     9 
15450 15452 15502 15505     9 
15453 15452 15502 15503     9 
15453 15452 15502 15504     9 
15453 15452 15502 15505     9 
15454 15452 15502 15503     9 
15454 15452 15502 15504     9 
15454 15452 15502 15505     9 
15443 15455 15458 15459     9 
15443 15455 15458 15460     9 
15443 15455 15458 15461     9 
15456 15455 15458 15459     9 
15456 15455 15458 15460     9 
15456 15455 15458 15461     9 
15457 15455 15458 15459     9 
15457 15455 15458 15460     9 
15457 15455 15458 15461     9 
15455 15458 15461 15462     9 
15455 15458 15461 15463     9 
15455 15458 15461 15464     9 
15459 15458 15461 15462     9 
15459 15458 15461 15463     9 
15459 15458 15461 15464     9 
15460 15458 15461 15462     9 
15460 15458 15461 15463     9 
15460 15458 15461 15464     9 
15458 15461 15464 15465     9 
15458 15461 15464 15466     9 
15458 15461 15464 15467     9 
15462 15461 15464 15465     9 
15462 15461 15464 15466     9 
15462 15461 15464 15467     9 
15463 15461 15464 15465     9 
15463 15461 15464 15466     9 
15463 15461 15464 15467     9 
15461 15464 15467 15468     9 
15461 15464 15467 15469     9 
15461 15464 15467 15470     9 
15465 15464 15467 15468     9 
15465 15464 15467 15469     9 
15465 15464 15467 15470     9 
15466 15464 15467 15468     9 
15466 15464 15467 15469     9 
15466 15464 15467 15470     9 
15464 15467 15470 15471     9 
15464 15467 15470 15472     9 
15464 15467 15470 15473     9 
15468 15467 15470 15471     9 
15468 15467 15470 15472     9 
15468 15467 15470 15473     9 
15469 15467 15470 15471     9 
15469 15467 15470 15472     9 
15469 15467 15470 15473     9 
15467 15470 15473 15474     9 
15467 15470 15473 15475     9 
15471 15470 15473 15474     9 
15471 15470 15473 15475     9 
15472 15470 15473 15474     9 
15472 15470 15473 15475     9 
15470 15473 15475 15476     9 
15470 15473 15475 15477     9 
15474 15473 15475 15476     9 
15474 15473 15475 15477     9 
15473 15475 15477 15478     9 
15473 15475 15477 15479     9 
15473 15475 15477 15480     9 
15476 15475 15477 15478     9 
15476 15475 15477 15479     9 
15476 15475 15477 15480     9 
15475 15477 15480 15481     9 
15475 15477 15480 15482     9 
15475 15477 15480 15483     9 
15478 15477 15480 15481     9 
15478 15477 15480 15482     9 
15478 15477 15480 15483     9 
15479 15477 15480 15481     9 
15479 15477 15480 15482     9 
15479 15477 15480 15483     9 
15477 15480 15483 15484     9 
15477 15480 15483 15485     9 
15477 15480 15483 15486     9 
15481 15480 15483 15484     9 
15481 15480 15483 15485     9 
15481 15480 15483 15486     9 
15482 15480 15483 15484     9 
15482 15480 15483 15485     9 
15482 15480 15483 15486     9 
15480 15483 15486 15487     9 
15480 15483 15486 15488     9 
15480 15483 15486 15489     9 
15484 15483 15486 15487     9 
15484 15483 15486 15488     9 
15484 15483 15486 15489     9 
15485 15483 15486 15487     9 
15485 15483 15486 15488     9 
15485 15483 15486 15489     9 
15483 15486 15489 15490     9 
15483 15486 15489 15491     9 
15483 15486 15489 15492     9 
15487 15486 15489 15490     9 
15487 15486 15489 15491     9 
15487 15486 15489 15492     9 
15488 15486 15489 15490     9 
15488 15486 15489 15491     9 
15488 15486 15489 15492     9 
15486 15489 15492 15493     9 
15486 15489 15492 15494     9 
15486 15489 15492 15495     9 
15490 15489 15492 15493     9 
15490 15489 15492 15494     9 
15490 15489 15492 15495     9 
15491 15489 15492 15493     9 
15491 15489 15492 15494     9 
15491 15489 15492 15495     9 
15489 15492 15495 15496     9 
15489 15492 15495 15497     9 
15489 15492 15495 15498     9 
15493 15492 15495 15496     9 
15493 15492 15495 15497     9 
15493 15492 15495 15498     9 
15494 15492 15495 15496     9 
15494 15492 15495 15497     9 
15494 15492 15495 15498     9 
15492 15495 15498 15499     9 
15492 15495 15498 15500     9 
15492 15495 15498 15501     9 
15496 15495 15498 15499     9 
15496 15495 15498 15500     9 
15496 15495 15498 15501     9 
15497 15495 15498 15499     9 
15497 15495 15498 15500     9 
15497 15495 15498 15501     9 
15452 15502 15505 15506     9 
15452 15502 15505 15507     9 
15452 15502 15505 15508     9 
15503 15502 15505 15506     9 
15503 15502 15505 15507     9 
15503 15502 15505 15508     9 
15504 15502 15505 15506     9 
15504 15502 15505 15507     9 
15504 15502 15505 15508     9 
15502 15505 15508 15509     9 
15502 15505 15508 15510     9 
15502 15505 15508 15511     9 
15506 15505 15508 15509     9 
15506 15505 15508 15510     9 
15506 15505 15508 15511     9 
15507 15505 15508 15509     9 
15507 15505 15508 15510     9 
15507 15505 15508 15511     9 
15505 15508 15511 15512     9 
15505 15508 15511 15513     9 
15505 15508 15511 15514     9 
15509 15508 15511 15512     9 
15509 15508 15511 15513     9 
15509 15508 15511 15514     9 
15510 15508 15511 15512     9 
15510 15508 15511 15513     9 
15510 15508 15511 15514     9 
15508 15511 15514 15515     9 
15508 15511 15514 15516     9 
15508 15511 15514 15517     9 
15512 15511 15514 15515     9 
15512 15511 15514 15516     9 
15512 15511 15514 15517     9 
15513 15511 15514 15515     9 
15513 15511 15514 15516     9 
15513 15511 15514 15517     9 
15511 15514 15517 15518     9 
15511 15514 15517 15519     9 
15511 15514 15517 15520     9 
15515 15514 15517 15518     9 
15515 15514 15517 15519     9 
15515 15514 15517 15520     9 
15516 15514 15517 15518     9 
15516 15514 15517 15519     9 
15516 15514 15517 15520     9 
15514 15517 15520 15521     9 
15514 15517 15520 15522     9 
15514 15517 15520 15523     9 
15518 15517 15520 15521     9 
15518 15517 15520 15522     9 
15518 15517 15520 15523     9 
15519 15517 15520 15521     9 
15519 15517 15520 15522     9 
15519 15517 15520 15523     9 
15517 15520 15523 15524     9 
15517 15520 15523 15525     9 
15517 15520 15523 15526     9 
15521 15520 15523 15524     9 
15521 15520 15523 15525     9 
15521 15520 15523 15526     9 
15522 15520 15523 15524     9 
15522 15520 15523 15525     9 
15522 15520 15523 15526     9 
15520 15523 15526 15527     9 
15520 15523 15526 15528     9 
15520 15523 15526 15529     9 
15524 15523 15526 15527     9 
15524 15523 15526 15528     9 
15524 15523 15526 15529     9 
15525 15523 15526 15527     9 
15525 15523 15526 15528     9 
15525 15523 15526 15529     9 
15523 15526 15529 15530     9 
15523 15526 15529 15531     9 
15523 15526 15529 15532     9 
15527 15526 15529 15530     9 
15527 15526 15529 15531     9 
15527 15526 15529 15532     9 
15528 15526 15529 15530     9 
15528 15526 15529 15531     9 
15528 15526 15529 15532     9 
15526 15529 15532 15533     9 
15526 15529 15532 15534     9 
15526 15529 15532 15535     9 
15530 15529 15532 15533     9 
15530 15529 15532 15534     9 
15530 15529 15532 15535     9 
15531 15529 15532 15533     9 
15531 15529 15532 15534     9 
15531 15529 15532 15535     9 
15529 15532 15535 15536     9 
15529 15532 15535 15537     9 
15529 15532 15535 15538     9 
15533 15532 15535 15536     9 
15533 15532 15535 15537     9 
15533 15532 15535 15538     9 
15534 15532 15535 15536     9 
15534 15532 15535 15537     9 
15534 15532 15535 15538     9 
15532 15535 15538 15539     9 
15532 15535 15538 15540     9 
15532 15535 15538 15541     9 
15536 15535 15538 15539     9 
15536 15535 15538 15540     9 
15536 15535 15538 15541     9 
15537 15535 15538 15539     9 
15537 15535 15538 15540     9 
15537 15535 15538 15541     9 
15535 15538 15541 15542     9 
15535 15538 15541 15543     9 
15535 15538 15541 15544     9 
15539 15538 15541 15542     9 
15539 15538 15541 15543     9 
15539 15538 15541 15544     9 
15540 15538 15541 15542     9 
15540 15538 15541 15543     9 
15540 15538 15541 15544     9 
15549 15545 15546 15547     9 
15549 15545 15546 15548     9 
15549 15545 15546 15561     9 
15553 15545 15546 15547     9 
15553 15545 15546 15548     9 
15553 15545 15546 15561     9 
15557 15545 15546 15547     9 
15557 15545 15546 15548     9 
15557 15545 15546 15561     9 
15546 15545 15549 15550     9 
15546 15545 15549 15551     9 
15546 15545 15549 15552     9 
15553 15545 15549 15550     9 
15553 15545 15549 15551     9 
15553 15545 15549 15552     9 
15557 15545 15549 15550     9 
15557 15545 15549 15551     9 
15557 15545 15549 15552     9 
15546 15545 15553 15554     9 
15546 15545 15553 15555     9 
15546 15545 15553 15556     9 
15549 15545 15553 15554     9 
15549 15545 15553 15555     9 
15549 15545 15553 15556     9 
15557 15545 15553 15554     9 
15557 15545 15553 15555     9 
15557 15545 15553 15556     9 
15546 15545 15557 15558     9 
15546 15545 15557 15559     9 
15546 15545 15557 15560     9 
15549 15545 15557 15558     9 
15549 15545 15557 15559     9 
15549 15545 15557 15560     9 
15553 15545 15557 15558     9 
15553 15545 15557 15559     9 
15553 15545 15557 15560     9 
15545 15546 15561 15562     9 
15545 15546 15561 15563     9 
15545 15546 15561 15567     9 
15547 15546 15561 15562     9 
15547 15546 15561 15563     9 
15547 15546 15561 15567     9 
15548 15546 15561 15562     9 
15548 15546 15561 15563     9 
15548 15546 15561 15567     9 
15546 15561 15567 15564     9 
15562 15561 15567 15564     9 
15563 15561 15567 15564     9 
15565 15564 15567 15561     9 
15566 15564 15567 15561     9 
15568 15564 15567 15561     9 
15565 15564 15568 15569     9 
15566 15564 15568 15569     9 
15567 15564 15568 15569     9 
15564 15568 15569 15570     9 
15564 15568 15569 15571     9 
15564 15568 15569 15572     9 
15568 15569 15572 15573     9 
15568 15569 15572 15574     9 
15568 15569 15572 15580     9 
15570 15569 15572 15573     9 
15570 15569 15572 15574     9 
15570 15569 15572 15580     9 
15571 15569 15572 15573     9 
15571 15569 15572 15574     9 
15571 15569 15572 15580     9 
15569 15572 15574 15575     9 
15573 15572 15574 15575     9 
15580 15572 15574 15575     9 
15569 15572 15580 15581     9 
15569 15572 15580 15582     9 
15569 15572 15580 15583     9 
15573 15572 15580 15581     9 
15573 15572 15580 15582     9 
15573 15572 15580 15583     9 
15574 15572 15580 15581     9 
15574 15572 15580 15582     9 
15574 15572 15580 15583     9 
15572 15574 15575 15576     9 
15572 15574 15575 15577     9 
15574 15575 15577 15578     9 
15574 15575 15577 15579     9 
15574 15575 15577 15589     9 
15576 15575 15577 15578     9 
15576 15575 15577 15579     9 
15576 15575 15577 15589     9 
15575 15577 15589 15590     9 
15575 15577 15589 15591     9 
15575 15577 15589 15592     9 
15578 15577 15589 15590     9 
15578 15577 15589 15591     9 
15578 15577 15589 15592     9 
15579 15577 15589 15590     9 
15579 15577 15589 15591     9 
15579 15577 15589 15592     9 
15572 15580 15583 15584     9 
15581 15580 15583 15584     9 
15582 15580 15583 15584     9 
15580 15583 15584 15585     9 
15580 15583 15584 15586     9 
15583 15584 15586 15587     9 
15583 15584 15586 15588     9 
15583 15584 15586 15636     9 
15585 15584 15586 15587     9 
15585 15584 15586 15588     9 
15585 15584 15586 15636     9 
15584 15586 15636 15637     9 
15584 15586 15636 15638     9 
15584 15586 15636 15639     9 
15587 15586 15636 15637     9 
15587 15586 15636 15638     9 
15587 15586 15636 15639     9 
15588 15586 15636 15637     9 
15588 15586 15636 15638     9 
15588 15586 15636 15639     9 
15577 15589 15592 15593     9 
15577 15589 15592 15594     9 
15577 15589 15592 15595     9 
15590 15589 15592 15593     9 
15590 15589 15592 15594     9 
15590 15589 15592 15595     9 
15591 15589 15592 15593     9 
15591 15589 15592 15594     9 
15591 15589 15592 15595     9 
15589 15592 15595 15596     9 
15589 15592 15595 15597     9 
15589 15592 15595 15598     9 
15593 15592 15595 15596     9 
15593 15592 15595 15597     9 
15593 15592 15595 15598     9 
15594 15592 15595 15596     9 
15594 15592 15595 15597     9 
15594 15592 15595 15598     9 
15592 15595 15598 15599     9 
15592 15595 15598 15600     9 
15592 15595 15598 15601     9 
15596 15595 15598 15599     9 
15596 15595 15598 15600     9 
15596 15595 15598 15601     9 
15597 15595 15598 15599     9 
15597 15595 15598 15600     9 
15597 15595 15598 15601     9 
15595 15598 15601 15602     9 
15595 15598 15601 15603     9 
15595 15598 15601 15604     9 
15599 15598 15601 15602     9 
15599 15598 15601 15603     9 
15599 15598 15601 15604     9 
15600 15598 15601 15602     9 
15600 15598 15601 15603     9 
15600 15598 15601 15604     9 
15598 15601 15604 15605     9 
15598 15601 15604 15606     9 
15598 15601 15604 15607     9 
15602 15601 15604 15605     9 
15602 15601 15604 15606     9 
15602 15601 15604 15607     9 
15603 15601 15604 15605     9 
15603 15601 15604 15606     9 
15603 15601 15604 15607     9 
15601 15604 15607 15608     9 
15601 15604 15607 15609     9 
15605 15604 15607 15608     9 
15605 15604 15607 15609     9 
15606 15604 15607 15608     9 
15606 15604 15607 15609     9 
15604 15607 15609 15610     9 
15604 15607 15609 15611     9 
15608 15607 15609 15610     9 
15608 15607 15609 15611     9 
15607 15609 15611 15612     9 
15607 15609 15611 15613     9 
15607 15609 15611 15614     9 
15610 15609 15611 15612     9 
15610 15609 15611 15613     9 
15610 15609 15611 15614     9 
15609 15611 15614 15615     9 
15609 15611 15614 15616     9 
15609 15611 15614 15617     9 
15612 15611 15614 15615     9 
15612 15611 15614 15616     9 
15612 15611 15614 15617     9 
15613 15611 15614 15615     9 
15613 15611 15614 15616     9 
15613 15611 15614 15617     9 
15611 15614 15617 15618     9 
15611 15614 15617 15619     9 
15611 15614 15617 15620     9 
15615 15614 15617 15618     9 
15615 15614 15617 15619     9 
15615 15614 15617 15620     9 
15616 15614 15617 15618     9 
15616 15614 15617 15619     9 
15616 15614 15617 15620     9 
15614 15617 15620 15621     9 
15614 15617 15620 15622     9 
15614 15617 15620 15623     9 
15618 15617 15620 15621     9 
15618 15617 15620 15622     9 
15618 15617 15620 15623     9 
15619 15617 15620 15621     9 
15619 15617 15620 15622     9 
15619 15617 15620 15623     9 
15617 15620 15623 15624     9 
15617 15620 15623 15625     9 
15617 15620 15623 15626     9 
15621 15620 15623 15624     9 
15621 15620 15623 15625     9 
15621 15620 15623 15626     9 
15622 15620 15623 15624     9 
15622 15620 15623 15625     9 
15622 15620 15623 15626     9 
15620 15623 15626 15627     9 
15620 15623 15626 15628     9 
15620 15623 15626 15629     9 
15624 15623 15626 15627     9 
15624 15623 15626 15628     9 
15624 15623 15626 15629     9 
15625 15623 15626 15627     9 
15625 15623 15626 15628     9 
15625 15623 15626 15629     9 
15623 15626 15629 15630     9 
15623 15626 15629 15631     9 
15623 15626 15629 15632     9 
15627 15626 15629 15630     9 
15627 15626 15629 15631     9 
15627 15626 15629 15632     9 
15628 15626 15629 15630     9 
15628 15626 15629 15631     9 
15628 15626 15629 15632     9 
15626 15629 15632 15633     9 
15626 15629 15632 15634     9 
15626 15629 15632 15635     9 
15630 15629 15632 15633     9 
15630 15629 15632 15634     9 
15630 15629 15632 15635     9 
15631 15629 15632 15633     9 
15631 15629 15632 15634     9 
15631 15629 15632 15635     9 
15586 15636 15639 15640     9 
15586 15636 15639 15641     9 
15586 15636 15639 15642     9 
15637 15636 15639 15640     9 
15637 15636 15639 15641     9 
15637 15636 15639 15642     9 
15638 15636 15639 15640     9 
15638 15636 15639 15641     9 
15638 15636 15639 15642     9 
15636 15639 15642 15643     9 
15636 15639 15642 15644     9 
15636 15639 15642 15645     9 
15640 15639 15642 15643     9 
15640 15639 15642 15644     9 
15640 15639 15642 15645     9 
15641 15639 15642 15643     9 
15641 15639 15642 15644     9 
15641 15639 15642 15645     9 
15639 15642 15645 15646     9 
15639 15642 15645 15647     9 
15639 15642 15645 15648     9 
15643 15642 15645 15646     9 
15643 15642 15645 15647     9 
15643 15642 15645 15648     9 
15644 15642 15645 15646     9 
15644 15642 15645 15647     9 
15644 15642 15645 15648     9 
15642 15645 15648 15649     9 
15642 15645 15648 15650     9 
15642 15645 15648 15651     9 
15646 15645 15648 15649     9 
15646 15645 15648 15650     9 
15646 15645 15648 15651     9 
15647 15645 15648 15649     9 
15647 15645 15648 15650     9 
15647 15645 15648 15651     9 
15645 15648 15651 15652     9 
15645 15648 15651 15653     9 
15645 15648 15651 15654     9 
15649 15648 15651 15652     9 
15649 15648 15651 15653     9 
15649 15648 15651 15654     9 
15650 15648 15651 15652     9 
15650 15648 15651 15653     9 
15650 15648 15651 15654     9 
15648 15651 15654 15655     9 
15648 15651 15654 15656     9 
15648 15651 15654 15657     9 
15652 15651 15654 15655     9 
15652 15651 15654 15656     9 
15652 15651 15654 15657     9 
15653 15651 15654 15655     9 
15653 15651 15654 15656     9 
15653 15651 15654 15657     9 
15651 15654 15657 15658     9 
15651 15654 15657 15659     9 
15651 15654 15657 15660     9 
15655 15654 15657 15658     9 
15655 15654 15657 15659     9 
15655 15654 15657 15660     9 
15656 15654 15657 15658     9 
15656 15654 15657 15659     9 
15656 15654 15657 15660     9 
15654 15657 15660 15661     9 
15654 15657 15660 15662     9 
15654 15657 15660 15663     9 
15658 15657 15660 15661     9 
15658 15657 15660 15662     9 
15658 15657 15660 15663     9 
15659 15657 15660 15661     9 
15659 15657 15660 15662     9 
15659 15657 15660 15663     9 
15657 15660 15663 15664     9 
15657 15660 15663 15665     9 
15657 15660 15663 15666     9 
15661 15660 15663 15664     9 
15661 15660 15663 15665     9 
15661 15660 15663 15666     9 
15662 15660 15663 15664     9 
15662 15660 15663 15665     9 
15662 15660 15663 15666     9 
15660 15663 15666 15667     9 
15660 15663 15666 15668     9 
15660 15663 15666 15669     9 
15664 15663 15666 15667     9 
15664 15663 15666 15668     9 
15664 15663 15666 15669     9 
15665 15663 15666 15667     9 
15665 15663 15666 15668     9 
15665 15663 15666 15669     9 
15663 15666 15669 15670     9 
15663 15666 15669 15671     9 
15663 15666 15669 15672     9 
15667 15666 15669 15670     9 
15667 15666 15669 15671     9 
15667 15666 15669 15672     9 
15668 15666 15669 15670     9 
15668 15666 15669 15671     9 
15668 15666 15669 15672     9 
15666 15669 15672 15673     9 
15666 15669 15672 15674     9 
15666 15669 15672 15675     9 
15670 15669 15672 15673     9 
15670 15669 15672 15674     9 
15670 15669 15672 15675     9 
15671 15669 15672 15673     9 
15671 15669 15672 15674     9 
15671 15669 15672 15675     9 
15669 15672 15675 15676     9 
15669 15672 15675 15677     9 
15669 15672 15675 15678     9 
15673 15672 15675 15676     9 
15673 15672 15675 15677     9 
15673 15672 15675 15678     9 
15674 15672 15675 15676     9 
15674 15672 15675 15677     9 
15674 15672 15675 15678     9 
15683 15679 15680 15681     9 
15683 15679 15680 15682     9 
15683 15679 15680 15695     9 
15687 15679 15680 15681     9 
15687 15679 15680 15682     9 
15687 15679 15680 15695     9 
15691 15679 15680 15681     9 
15691 15679 15680 15682     9 
15691 15679 15680 15695     9 
15680 15679 15683 15684     9 
15680 15679 15683 15685     9 
15680 15679 15683 15686     9 
15687 15679 15683 15684     9 
15687 15679 15683 15685     9 
15687 15679 15683 15686     9 
15691 15679 15683 15684     9 
15691 15679 15683 15685     9 
15691 15679 15683 15686     9 
15680 15679 15687 15688     9 
15680 15679 15687 15689     9 
15680 15679 15687 15690     9 
15683 15679 15687 15688     9 
15683 15679 15687 15689     9 
15683 15679 15687 15690     9 
15691 15679 15687 15688     9 
15691 15679 15687 15689     9 
15691 15679 15687 15690     9 
15680 15679 15691 15692     9 
15680 15679 15691 15693     9 
15680 15679 15691 15694     9 
15683 15679 15691 15692     9 
15683 15679 15691 15693     9 
15683 15679 15691 15694     9 
15687 15679 15691 15692     9 
15687 15679 15691 15693     9 
15687 15679 15691 15694     9 
15679 15680 15695 15696     9 
15679 15680 15695 15697     9 
15679 15680 15695 15701     9 
15681 15680 15695 15696     9 
15681 15680 15695 15697     9 
15681 15680 15695 15701     9 
15682 15680 15695 15696     9 
15682 15680 15695 15697     9 
15682 15680 15695 15701     9 
15680 15695 15701 15698     9 
15696 15695 15701 15698     9 
15697 15695 15701 15698     9 
15699 15698 15701 15695     9 
15700 15698 15701 15695     9 
15702 15698 15701 15695     9 
15699 15698 15702 15703     9 
15700 15698 15702 15703     9 
15701 15698 15702 15703     9 
15698 15702 15703 15704     9 
15698 15702 15703 15705     9 
15698 15702 15703 15706     9 
15702 15703 15706 15707     9 
15702 15703 15706 15708     9 
15702 15703 15706 15714     9 
15704 15703 15706 15707     9 
15704 15703 15706 15708     9 
15704 15703 15706 15714     9 
15705 15703 15706 15707     9 
15705 15703 15706 15708     9 
15705 15703 15706 15714     9 
15703 15706 15708 15709     9 
15707 15706 15708 15709     9 
15714 15706 15708 15709     9 
15703 15706 15714 15715     9 
15703 15706 15714 15716     9 
15703 15706 15714 15717     9 
15707 15706 15714 15715     9 
15707 15706 15714 15716     9 
15707 15706 15714 15717     9 
15708 15706 15714 15715     9 
15708 15706 15714 15716     9 
15708 15706 15714 15717     9 
15706 15708 15709 15710     9 
15706 15708 15709 15711     9 
15708 15709 15711 15712     9 
15708 15709 15711 15713     9 
15708 15709 15711 15723     9 
15710 15709 15711 15712     9 
15710 15709 15711 15713     9 
15710 15709 15711 15723     9 
15709 15711 15723 15724     9 
15709 15711 15723 15725     9 
15709 15711 15723 15726     9 
15712 15711 15723 15724     9 
15712 15711 15723 15725     9 
15712 15711 15723 15726     9 
15713 15711 15723 15724     9 
15713 15711 15723 15725     9 
15713 15711 15723 15726     9 
15706 15714 15717 15718     9 
15715 15714 15717 15718     9 
15716 15714 15717 15718     9 
15714 15717 15718 15719     9 
15714 15717 15718 15720     9 
15717 15718 15720 15721     9 
15717 15718 15720 15722     9 
15717 15718 15720 15770     9 
15719 15718 15720 15721     9 
15719 15718 15720 15722     9 
15719 15718 15720 15770     9 
15718 15720 15770 15771     9 
15718 15720 15770 15772     9 
15718 15720 15770 15773     9 
15721 15720 15770 15771     9 
15721 15720 15770 15772     9 
15721 15720 15770 15773     9 
15722 15720 15770 15771     9 
15722 15720 15770 15772     9 
15722 15720 15770 15773     9 
15711 15723 15726 15727     9 
15711 15723 15726 15728     9 
15711 15723 15726 15729     9 
15724 15723 15726 15727     9 
15724 15723 15726 15728     9 
15724 15723 15726 15729     9 
15725 15723 15726 15727     9 
15725 15723 15726 15728     9 
15725 15723 15726 15729     9 
15723 15726 15729 15730     9 
15723 15726 15729 15731     9 
15723 15726 15729 15732     9 
15727 15726 15729 15730     9 
15727 15726 15729 15731     9 
15727 15726 15729 15732     9 
15728 15726 15729 15730     9 
15728 15726 15729 15731     9 
15728 15726 15729 15732     9 
15726 15729 15732 15733     9 
15726 15729 15732 15734     9 
15726 15729 15732 15735     9 
15730 15729 15732 15733     9 
15730 15729 15732 15734     9 
15730 15729 15732 15735     9 
15731 15729 15732 15733     9 
15731 15729 15732 15734     9 
15731 15729 15732 15735     9 
15729 15732 15735 15736     9 
15729 15732 15735 15737     9 
15729 15732 15735 15738     9 
15733 15732 15735 15736     9 
15733 15732 15735 15737     9 
15733 15732 15735 15738     9 
15734 15732 15735 15736     9 
15734 15732 15735 15737     9 
15734 15732 15735 15738     9 
15732 15735 15738 15739     9 
15732 15735 15738 15740     9 
15732 15735 15738 15741     9 
15736 15735 15738 15739     9 
15736 15735 15738 15740     9 
15736 15735 15738 15741     9 
15737 15735 15738 15739     9 
15737 15735 15738 15740     9 
15737 15735 15738 15741     9 
15735 15738 15741 15742     9 
15735 15738 15741 15743     9 
15739 15738 15741 15742     9 
15739 15738 15741 15743     9 
15740 15738 15741 15742     9 
15740 15738 15741 15743     9 
15738 15741 15743 15744     9 
15738 15741 15743 15745     9 
15742 15741 15743 15744     9 
15742 15741 15743 15745     9 
15741 15743 15745 15746     9 
15741 15743 15745 15747     9 
15741 15743 15745 15748     9 
15744 15743 15745 15746     9 
15744 15743 15745 15747     9 
15744 15743 15745 15748     9 
15743 15745 15748 15749     9 
15743 15745 15748 15750     9 
15743 15745 15748 15751     9 
15746 15745 15748 15749     9 
15746 15745 15748 15750     9 
15746 15745 15748 15751     9 
15747 15745 15748 15749     9 
15747 15745 15748 15750     9 
15747 15745 15748 15751     9 
15745 15748 15751 15752     9 
15745 15748 15751 15753     9 
15745 15748 15751 15754     9 
15749 15748 15751 15752     9 
15749 15748 15751 15753     9 
15749 15748 15751 15754     9 
15750 15748 15751 15752     9 
15750 15748 15751 15753     9 
15750 15748 15751 15754     9 
15748 15751 15754 15755     9 
15748 15751 15754 15756     9 
15748 15751 15754 15757     9 
15752 15751 15754 15755     9 
15752 15751 15754 15756     9 
15752 15751 15754 15757     9 
15753 15751 15754 15755     9 
15753 15751 15754 15756     9 
15753 15751 15754 15757     9 
15751 15754 15757 15758     9 
15751 15754 15757 15759     9 
15751 15754 15757 15760     9 
15755 15754 15757 15758     9 
15755 15754 15757 15759     9 
15755 15754 15757 15760     9 
15756 15754 15757 15758     9 
15756 15754 15757 15759     9 
15756 15754 15757 15760     9 
15754 15757 15760 15761     9 
15754 15757 15760 15762     9 
15754 15757 15760 15763     9 
15758 15757 15760 15761     9 
15758 15757 15760 15762     9 
15758 15757 15760 15763     9 
15759 15757 15760 15761     9 
15759 15757 15760 15762     9 
15759 15757 15760 15763     9 
15757 15760 15763 15764     9 
15757 15760 15763 15765     9 
15757 15760 15763 15766     9 
15761 15760 15763 15764     9 
15761 15760 15763 15765     9 
15761 15760 15763 15766     9 
15762 15760 15763 15764     9 
15762 15760 15763 15765     9 
15762 15760 15763 15766     9 
15760 15763 15766 15767     9 
15760 15763 15766 15768     9 
15760 15763 15766 15769     9 
15764 15763 15766 15767     9 
15764 15763 15766 15768     9 
15764 15763 15766 15769     9 
15765 15763 15766 15767     9 
15765 15763 15766 15768     9 
15765 15763 15766 15769     9 
15720 15770 15773 15774     9 
15720 15770 15773 15775     9 
15720 15770 15773 15776     9 
15771 15770 15773 15774     9 
15771 15770 15773 15775     9 
15771 15770 15773 15776     9 
15772 15770 15773 15774     9 
15772 15770 15773 15775     9 
15772 15770 15773 15776     9 
15770 15773 15776 15777     9 
15770 15773 15776 15778     9 
15770 15773 15776 15779     9 
15774 15773 15776 15777     9 
15774 15773 15776 15778     9 
15774 15773 15776 15779     9 
15775 15773 15776 15777     9 
15775 15773 15776 15778     9 
15775 15773 15776 15779     9 
15773 15776 15779 15780     9 
15773 15776 15779 15781     9 
15773 15776 15779 15782     9 
15777 15776 15779 15780     9 
15777 15776 15779 15781     9 
15777 15776 15779 15782     9 
15778 15776 15779 15780     9 
15778 15776 15779 15781     9 
15778 15776 15779 15782     9 
15776 15779 15782 15783     9 
15776 15779 15782 15784     9 
15776 15779 15782 15785     9 
15780 15779 15782 15783     9 
15780 15779 15782 15784     9 
15780 15779 15782 15785     9 
15781 15779 15782 15783     9 
15781 15779 15782 15784     9 
15781 15779 15782 15785     9 
15779 15782 15785 15786     9 
15779 15782 15785 15787     9 
15779 15782 15785 15788     9 
15783 15782 15785 15786     9 
15783 15782 15785 15787     9 
15783 15782 15785 15788     9 
15784 15782 15785 15786     9 
15784 15782 15785 15787     9 
15784 15782 15785 15788     9 
15782 15785 15788 15789     9 
15782 15785 15788 15790     9 
15782 15785 15788 15791     9 
15786 15785 15788 15789     9 
15786 15785 15788 15790     9 
15786 15785 15788 15791     9 
15787 15785 15788 15789     9 
15787 15785 15788 15790     9 
15787 15785 15788 15791     9 
15785 15788 15791 15792     9 
15785 15788 15791 15793     9 
15785 15788 15791 15794     9 
15789 15788 15791 15792     9 
15789 15788 15791 15793     9 
15789 15788 15791 15794     9 
15790 15788 15791 15792     9 
15790 15788 15791 15793     9 
15790 15788 15791 15794     9 
15788 15791 15794 15795     9 
15788 15791 15794 15796     9 
15788 15791 15794 15797     9 
15792 15791 15794 15795     9 
15792 15791 15794 15796     9 
15792 15791 15794 15797     9 
15793 15791 15794 15795     9 
15793 15791 15794 15796     9 
15793 15791 15794 15797     9 
15791 15794 15797 15798     9 
15791 15794 15797 15799     9 
15791 15794 15797 15800     9 
15795 15794 15797 15798     9 
15795 15794 15797 15799     9 
15795 15794 15797 15800     9 
15796 15794 15797 15798     9 
15796 15794 15797 15799     9 
15796 15794 15797 15800     9 
15794 15797 15800 15801     9 
15794 15797 15800 15802     9 
15794 15797 15800 15803     9 
15798 15797 15800 15801     9 
15798 15797 15800 15802     9 
15798 15797 15800 15803     9 
15799 15797 15800 15801     9 
15799 15797 15800 15802     9 
15799 15797 15800 15803     9 
15797 15800 15803 15804     9 
15797 15800 15803 15805     9 
15797 15800 15803 15806     9 
15801 15800 15803 15804     9 
15801 15800 15803 15805     9 
15801 15800 15803 15806     9 
15802 15800 15803 15804     9 
15802 15800 15803 15805     9 
15802 15800 15803 15806     9 
15800 15803 15806 15807     9 
15800 15803 15806 15808     9 
15800 15803 15806 15809     9 
15804 15803 15806 15807     9 
15804 15803 15806 15808     9 
15804 15803 15806 15809     9 
15805 15803 15806 15807     9 
15805 15803 15806 15808     9 
15805 15803 15806 15809     9 
15803 15806 15809 15810     9 
15803 15806 15809 15811     9 
15803 15806 15809 15812     9 
15807 15806 15809 15810     9 
15807 15806 15809 15811     9 
15807 15806 15809 15812     9 
15808 15806 15809 15810     9 
15808 15806 15809 15811     9 
15808 15806 15809 15812     9 
15817 15813 15814 15815     9 
15817 15813 15814 15816     9 
15817 15813 15814 15829     9 
15821 15813 15814 15815     9 
15821 15813 15814 15816     9 
15821 15813 15814 15829     9 
15825 15813 15814 15815     9 
15825 15813 15814 15816     9 
15825 15813 15814 15829     9 
15814 15813 15817 15818     9 
15814 15813 15817 15819     9 
15814 15813 15817 15820     9 
15821 15813 15817 15818     9 
15821 15813 15817 15819     9 
15821 15813 15817 15820     9 
15825 15813 15817 15818     9 
15825 15813 15817 15819     9 
15825 15813 15817 15820     9 
15814 15813 15821 15822     9 
15814 15813 15821 15823     9 
15814 15813 15821 15824     9 
15817 15813 15821 15822     9 
15817 15813 15821 15823     9 
15817 15813 15821 15824     9 
15825 15813 15821 15822     9 
15825 15813 15821 15823     9 
15825 15813 15821 15824     9 
15814 15813 15825 15826     9 
15814 15813 15825 15827     9 
15814 15813 15825 15828     9 
15817 15813 15825 15826     9 
15817 15813 15825 15827     9 
15817 15813 15825 15828     9 
15821 15813 15825 15826     9 
15821 15813 15825 15827     9 
15821 15813 15825 15828     9 
15813 15814 15829 15830     9 
15813 15814 15829 15831     9 
15813 15814 15829 15835     9 
15815 15814 15829 15830     9 
15815 15814 15829 15831     9 
15815 15814 15829 15835     9 
15816 15814 15829 15830     9 
15816 15814 15829 15831     9 
15816 15814 15829 15835     9 
15814 15829 15835 15832     9 
15830 15829 15835 15832     9 
15831 15829 15835 15832     9 
15833 15832 15835 15829     9 
15834 15832 15835 15829     9 
15836 15832 15835 15829     9 
15833 15832 15836 15837     9 
15834 15832 15836 15837     9 
15835 15832 15836 15837     9 
15832 15836 15837 15838     9 
15832 15836 15837 15839     9 
15832 15836 15837 15840     9 
15836 15837 15840 15841     9 
15836 15837 15840 15842     9 
15836 15837 15840 15848     9 
15838 15837 15840 15841     9 
15838 15837 15840 15842     9 
15838 15837 15840 15848     9 
15839 15837 15840 15841     9 
15839 15837 15840 15842     9 
15839 15837 15840 15848     9 
15837 15840 15842 15843     9 
15841 15840 15842 15843     9 
15848 15840 15842 15843     9 
15837 15840 15848 15849     9 
15837 15840 15848 15850     9 
15837 15840 15848 15851     9 
15841 15840 15848 15849     9 
15841 15840 15848 15850     9 
15841 15840 15848 15851     9 
15842 15840 15848 15849     9 
15842 15840 15848 15850     9 
15842 15840 15848 15851     9 
15840 15842 15843 15844     9 
15840 15842 15843 15845     9 
15842 15843 15845 15846     9 
15842 15843 15845 15847     9 
15842 15843 15845 15857     9 
15844 15843 15845 15846     9 
15844 15843 15845 15847     9 
15844 15843 15845 15857     9 
15843 15845 15857 15858     9 
15843 15845 15857 15859     9 
15843 15845 15857 15860     9 
15846 15845 15857 15858     9 
15846 15845 15857 15859     9 
15846 15845 15857 15860     9 
15847 15845 15857 15858     9 
15847 15845 15857 15859     9 
15847 15845 15857 15860     9 
15840 15848 15851 15852     9 
15849 15848 15851 15852     9 
15850 15848 15851 15852     9 
15848 15851 15852 15853     9 
15848 15851 15852 15854     9 
15851 15852 15854 15855     9 
15851 15852 15854 15856     9 
15851 15852 15854 15904     9 
15853 15852 15854 15855     9 
15853 15852 15854 15856     9 
15853 15852 15854 15904     9 
15852 15854 15904 15905     9 
15852 15854 15904 15906     9 
15852 15854 15904 15907     9 
15855 15854 15904 15905     9 
15855 15854 15904 15906     9 
15855 15854 15904 15907     9 
15856 15854 15904 15905     9 
15856 15854 15904 15906     9 
15856 15854 15904 15907     9 
15845 15857 15860 15861     9 
15845 15857 15860 15862     9 
15845 15857 15860 15863     9 
15858 15857 15860 15861     9 
15858 15857 15860 15862     9 
15858 15857 15860 15863     9 
15859 15857 15860 15861     9 
15859 15857 15860 15862     9 
15859 15857 15860 15863     9 
15857 15860 15863 15864     9 
15857 15860 15863 15865     9 
15857 15860 15863 15866     9 
15861 15860 15863 15864     9 
15861 15860 15863 15865     9 
15861 15860 15863 15866     9 
15862 15860 15863 15864     9 
15862 15860 15863 15865     9 
15862 15860 15863 15866     9 
15860 15863 15866 15867     9 
15860 15863 15866 15868     9 
15860 15863 15866 15869     9 
15864 15863 15866 15867     9 
15864 15863 15866 15868     9 
15864 15863 15866 15869     9 
15865 15863 15866 15867     9 
15865 15863 15866 15868     9 
15865 15863 15866 15869     9 
15863 15866 15869 15870     9 
15863 15866 15869 15871     9 
15863 15866 15869 15872     9 
15867 15866 15869 15870     9 
15867 15866 15869 15871     9 
15867 15866 15869 15872     9 
15868 15866 15869 15870     9 
15868 15866 15869 15871     9 
15868 15866 15869 15872     9 
15866 15869 15872 15873     9 
15866 15869 15872 15874     9 
15866 15869 15872 15875     9 
15870 15869 15872 15873     9 
15870 15869 15872 15874     9 
15870 15869 15872 15875     9 
15871 15869 15872 15873     9 
15871 15869 15872 15874     9 
15871 15869 15872 15875     9 
15869 15872 15875 15876     9 
15869 15872 15875 15877     9 
15873 15872 15875 15876     9 
15873 15872 15875 15877     9 
15874 15872 15875 15876     9 
15874 15872 15875 15877     9 
15872 15875 15877 15878     9 
15872 15875 15877 15879     9 
15876 15875 15877 15878     9 
15876 15875 15877 15879     9 
15875 15877 15879 15880     9 
15875 15877 15879 15881     9 
15875 15877 15879 15882     9 
15878 15877 15879 15880     9 
15878 15877 15879 15881     9 
15878 15877 15879 15882     9 
15877 15879 15882 15883     9 
15877 15879 15882 15884     9 
15877 15879 15882 15885     9 
15880 15879 15882 15883     9 
15880 15879 15882 15884     9 
15880 15879 15882 15885     9 
15881 15879 15882 15883     9 
15881 15879 15882 15884     9 
15881 15879 15882 15885     9 
15879 15882 15885 15886     9 
15879 15882 15885 15887     9 
15879 15882 15885 15888     9 
15883 15882 15885 15886     9 
15883 15882 15885 15887     9 
15883 15882 15885 15888     9 
15884 15882 15885 15886     9 
15884 15882 15885 15887     9 
15884 15882 15885 15888     9 
15882 15885 15888 15889     9 
15882 15885 15888 15890     9 
15882 15885 15888 15891     9 
15886 15885 15888 15889     9 
15886 15885 15888 15890     9 
15886 15885 15888 15891     9 
15887 15885 15888 15889     9 
15887 15885 15888 15890     9 
15887 15885 15888 15891     9 
15885 15888 15891 15892     9 
15885 15888 15891 15893     9 
15885 15888 15891 15894     9 
15889 15888 15891 15892     9 
15889 15888 15891 15893     9 
15889 15888 15891 15894     9 
15890 15888 15891 15892     9 
15890 15888 15891 15893     9 
15890 15888 15891 15894     9 
15888 15891 15894 15895     9 
15888 15891 15894 15896     9 
15888 15891 15894 15897     9 
15892 15891 15894 15895     9 
15892 15891 15894 15896     9 
15892 15891 15894 15897     9 
15893 15891 15894 15895     9 
15893 15891 15894 15896     9 
15893 15891 15894 15897     9 
15891 15894 15897 15898     9 
15891 15894 15897 15899     9 
15891 15894 15897 15900     9 
15895 15894 15897 15898     9 
15895 15894 15897 15899     9 
15895 15894 15897 15900     9 
15896 15894 15897 15898     9 
15896 15894 15897 15899     9 
15896 15894 15897 15900     9 
15894 15897 15900 15901     9 
15894 15897 15900 15902     9 
15894 15897 15900 15903     9 
15898 15897 15900 15901     9 
15898 15897 15900 15902     9 
15898 15897 15900 15903     9 
15899 15897 15900 15901     9 
15899 15897 15900 15902     9 
15899 15897 15900 15903     9 
15854 15904 15907 15908     9 
15854 15904 15907 15909     9 
15854 15904 15907 15910     9 
15905 15904 15907 15908     9 
15905 15904 15907 15909     9 
15905 15904 15907 15910     9 
15906 15904 15907 15908     9 
15906 15904 15907 15909     9 
15906 15904 15907 15910     9 
15904 15907 15910 15911     9 
15904 15907 15910 15912     9 
15904 15907 15910 15913     9 
15908 15907 15910 15911     9 
15908 15907 15910 15912     9 
15908 15907 15910 15913     9 
15909 15907 15910 15911     9 
15909 15907 15910 15912     9 
15909 15907 15910 15913     9 
15907 15910 15913 15914     9 
15907 15910 15913 15915     9 
15907 15910 15913 15916     9 
15911 15910 15913 15914     9 
15911 15910 15913 15915     9 
15911 15910 15913 15916     9 
15912 15910 15913 15914     9 
15912 15910 15913 15915     9 
15912 15910 15913 15916     9 
15910 15913 15916 15917     9 
15910 15913 15916 15918     9 
15910 15913 15916 15919     9 
15914 15913 15916 15917     9 
15914 15913 15916 15918     9 
15914 15913 15916 15919     9 
15915 15913 15916 15917     9 
15915 15913 15916 15918     9 
15915 15913 15916 15919     9 
15913 15916 15919 15920     9 
15913 15916 15919 15921     9 
15913 15916 15919 15922     9 
15917 15916 15919 15920     9 
15917 15916 15919 15921     9 
15917 15916 15919 15922     9 
15918 15916 15919 15920     9 
15918 15916 15919 15921     9 
15918 15916 15919 15922     9 
15916 15919 15922 15923     9 
15916 15919 15922 15924     9 
15916 15919 15922 15925     9 
15920 15919 15922 15923     9 
15920 15919 15922 15924     9 
15920 15919 15922 15925     9 
15921 15919 15922 15923     9 
15921 15919 15922 15924     9 
15921 15919 15922 15925     9 
15919 15922 15925 15926     9 
15919 15922 15925 15927     9 
15919 15922 15925 15928     9 
15923 15922 15925 15926     9 
15923 15922 15925 15927     9 
15923 15922 15925 15928     9 
15924 15922 15925 15926     9 
15924 15922 15925 15927     9 
15924 15922 15925 15928     9 
15922 15925 15928 15929     9 
15922 15925 15928 15930     9 
15922 15925 15928 15931     9 
15926 15925 15928 15929     9 
15926 15925 15928 15930     9 
15926 15925 15928 15931     9 
15927 15925 15928 15929     9 
15927 15925 15928 15930     9 
15927 15925 15928 15931     9 
15925 15928 15931 15932     9 
15925 15928 15931 15933     9 
15925 15928 15931 15934     9 
15929 15928 15931 15932     9 
15929 15928 15931 15933     9 
15929 15928 15931 15934     9 
15930 15928 15931 15932     9 
15930 15928 15931 15933     9 
15930 15928 15931 15934     9 
15928 15931 15934 15935     9 
15928 15931 15934 15936     9 
15928 15931 15934 15937     9 
15932 15931 15934 15935     9 
15932 15931 15934 15936     9 
15932 15931 15934 15937     9 
15933 15931 15934 15935     9 
15933 15931 15934 15936     9 
15933 15931 15934 15937     9 
15931 15934 15937 15938     9 
15931 15934 15937 15939     9 
15931 15934 15937 15940     9 
15935 15934 15937 15938     9 
15935 15934 15937 15939     9 
15935 15934 15937 15940     9 
15936 15934 15937 15938     9 
15936 15934 15937 15939     9 
15936 15934 15937 15940     9 
15934 15937 15940 15941     9 
15934 15937 15940 15942     9 
15934 15937 15940 15943     9 
15938 15937 15940 15941     9 
15938 15937 15940 15942     9 
15938 15937 15940 15943     9 
15939 15937 15940 15941     9 
15939 15937 15940 15942     9 
15939 15937 15940 15943     9 
15937 15940 15943 15944     9 
15937 15940 15943 15945     9 
15937 15940 15943 15946     9 
15941 15940 15943 15944     9 
15941 15940 15943 15945     9 
15941 15940 15943 15946     9 
15942 15940 15943 15944     9 
15942 15940 15943 15945     9 
15942 15940 15943 15946     9 
15951 15947 15948 15949     9 
15951 15947 15948 15950     9 
15951 15947 15948 15963     9 
15955 15947 15948 15949     9 
15955 15947 15948 15950     9 
15955 15947 15948 15963     9 
15959 15947 15948 15949     9 
15959 15947 15948 15950     9 
15959 15947 15948 15963     9 
15948 15947 15951 15952     9 
15948 15947 15951 15953     9 
15948 15947 15951 15954     9 
15955 15947 15951 15952     9 
15955 15947 15951 15953     9 
15955 15947 15951 15954     9 
15959 15947 15951 15952     9 
15959 15947 15951 15953     9 
15959 15947 15951 15954     9 
15948 15947 15955 15956     9 
15948 15947 15955 15957     9 
15948 15947 15955 15958     9 
15951 15947 15955 15956     9 
15951 15947 15955 15957     9 
15951 15947 15955 15958     9 
15959 15947 15955 15956     9 
15959 15947 15955 15957     9 
15959 15947 15955 15958     9 
15948 15947 15959 15960     9 
15948 15947 15959 15961     9 
15948 15947 15959 15962     9 
15951 15947 15959 15960     9 
15951 15947 15959 15961     9 
15951 15947 15959 15962     9 
15955 15947 15959 15960     9 
15955 15947 15959 15961     9 
15955 15947 15959 15962     9 
15947 15948 15963 15964     9 
15947 15948 15963 15965     9 
15947 15948 15963 15969     9 
15949 15948 15963 15964     9 
15949 15948 15963 15965     9 
15949 15948 15963 15969     9 
15950 15948 15963 15964     9 
15950 15948 15963 15965     9 
15950 15948 15963 15969     9 
15948 15963 15969 15966     9 
15964 15963 15969 15966     9 
15965 15963 15969 15966     9 
15967 15966 15969 15963     9 
15968 15966 15969 15963     9 
15970 15966 15969 15963     9 
15967 15966 15970 15971     9 
15968 15966 15970 15971     9 
15969 15966 15970 15971     9 
15966 15970 15971 15972     9 
15966 15970 15971 15973     9 
15966 15970 15971 15974     9 
15970 15971 15974 15975     9 
15970 15971 15974 15976     9 
15970 15971 15974 15982     9 
15972 15971 15974 15975     9 
15972 15971 15974 15976     9 
15972 15971 15974 15982     9 
15973 15971 15974 15975     9 
15973 15971 15974 15976     9 
15973 15971 15974 15982     9 
15971 15974 15976 15977     9 
15975 15974 15976 15977     9 
15982 15974 15976 15977     9 
15971 15974 15982 15983     9 
15971 15974 15982 15984     9 
15971 15974 15982 15985     9 
15975 15974 15982 15983     9 
15975 15974 15982 15984     9 
15975 15974 15982 15985     9 
15976 15974 15982 15983     9 
15976 15974 15982 15984     9 
15976 15974 15982 15985     9 
15974 15976 15977 15978     9 
15974 15976 15977 15979     9 
15976 15977 15979 15980     9 
15976 15977 15979 15981     9 
15976 15977 15979 15991     9 
15978 15977 15979 15980     9 
15978 15977 15979 15981     9 
15978 15977 15979 15991     9 
15977 15979 15991 15992     9 
15977 15979 15991 15993     9 
15977 15979 15991 15994     9 
15980 15979 15991 15992     9 
15980 15979 15991 15993     9 
15980 15979 15991 15994     9 
15981 15979 15991 15992     9 
15981 15979 15991 15993     9 
15981 15979 15991 15994     9 
15974 15982 15985 15986     9 
15983 15982 15985 15986     9 
15984 15982 15985 15986     9 
15982 15985 15986 15987     9 
15982 15985 15986 15988     9 
15985 15986 15988 15989     9 
15985 15986 15988 15990     9 
15985 15986 15988 16038     9 
15987 15986 15988 15989     9 
15987 15986 15988 15990     9 
15987 15986 15988 16038     9 
15986 15988 16038 16039     9 
15986 15988 16038 16040     9 
15986 15988 16038 16041     9 
15989 15988 16038 16039     9 
15989 15988 16038 16040     9 
15989 15988 16038 16041     9 
15990 15988 16038 16039     9 
15990 15988 16038 16040     9 
15990 15988 16038 16041     9 
15979 15991 15994 15995     9 
15979 15991 15994 15996     9 
15979 15991 15994 15997     9 
15992 15991 15994 15995     9 
15992 15991 15994 15996     9 
15992 15991 15994 15997     9 
15993 15991 15994 15995     9 
15993 15991 15994 15996     9 
15993 15991 15994 15997     9 
15991 15994 15997 15998     9 
15991 15994 15997 15999     9 
15991 15994 15997 16000     9 
15995 15994 15997 15998     9 
15995 15994 15997 15999     9 
15995 15994 15997 16000     9 
15996 15994 15997 15998     9 
15996 15994 15997 15999     9 
15996 15994 15997 16000     9 
15994 15997 16000 16001     9 
15994 15997 16000 16002     9 
15994 15997 16000 16003     9 
15998 15997 16000 16001     9 
15998 15997 16000 16002     9 
15998 15997 16000 16003     9 
15999 15997 16000 16001     9 
15999 15997 16000 16002     9 
15999 15997 16000 16003     9 
15997 16000 16003 16004     9 
15997 16000 16003 16005     9 
15997 16000 16003 16006     9 
16001 16000 16003 16004     9 
16001 16000 16003 16005     9 
16001 16000 16003 16006     9 
16002 16000 16003 16004     9 
16002 16000 16003 16005     9 
16002 16000 16003 16006     9 
16000 16003 16006 16007     9 
16000 16003 16006 16008     9 
16000 16003 16006 16009     9 
16004 16003 16006 16007     9 
16004 16003 16006 16008     9 
16004 16003 16006 16009     9 
16005 16003 16006 16007     9 
16005 16003 16006 16008     9 
16005 16003 16006 16009     9 
16003 16006 16009 16010     9 
16003 16006 16009 16011     9 
16007 16006 16009 16010     9 
16007 16006 16009 16011     9 
16008 16006 16009 16010     9 
16008 16006 16009 16011     9 
16006 16009 16011 16012     9 
16006 16009 16011 16013     9 
16010 16009 16011 16012     9 
16010 16009 16011 16013     9 
16009 16011 16013 16014     9 
16009 16011 16013 16015     9 
16009 16011 16013 16016     9 
16012 16011 16013 16014     9 
16012 16011 16013 16015     9 
16012 16011 16013 16016     9 
16011 16013 16016 16017     9 
16011 16013 16016 16018     9 
16011 16013 16016 16019     9 
16014 16013 16016 16017     9 
16014 16013 16016 16018     9 
16014 16013 16016 16019     9 
16015 16013 16016 16017     9 
16015 16013 16016 16018     9 
16015 16013 16016 16019     9 
16013 16016 16019 16020     9 
16013 16016 16019 16021     9 
16013 16016 16019 16022     9 
16017 16016 16019 16020     9 
16017 16016 16019 16021     9 
16017 16016 16019 16022     9 
16018 16016 16019 16020     9 
16018 16016 16019 16021     9 
16018 16016 16019 16022     9 
16016 16019 16022 16023     9 
16016 16019 16022 16024     9 
16016 16019 16022 16025     9 
16020 16019 16022 16023     9 
16020 16019 16022 16024     9 
16020 16019 16022 16025     9 
16021 16019 16022 16023     9 
16021 16019 16022 16024     9 
16021 16019 16022 16025     9 
16019 16022 16025 16026     9 
16019 16022 16025 16027     9 
16019 16022 16025 16028     9 
16023 16022 16025 16026     9 
16023 16022 16025 16027     9 
16023 16022 16025 16028     9 
16024 16022 16025 16026     9 
16024 16022 16025 16027     9 
16024 16022 16025 16028     9 
16022 16025 16028 16029     9 
16022 16025 16028 16030     9 
16022 16025 16028 16031     9 
16026 16025 16028 16029     9 
16026 16025 16028 16030     9 
16026 16025 16028 16031     9 
16027 16025 16028 16029     9 
16027 16025 16028 16030     9 
16027 16025 16028 16031     9 
16025 16028 16031 16032     9 
16025 16028 16031 16033     9 
16025 16028 16031 16034     9 
16029 16028 16031 16032     9 
16029 16028 16031 16033     9 
16029 16028 16031 16034     9 
16030 16028 16031 16032     9 
16030 16028 16031 16033     9 
16030 16028 16031 16034     9 
16028 16031 16034 16035     9 
16028 16031 16034 16036     9 
16028 16031 16034 16037     9 
16032 16031 16034 16035     9 
16032 16031 16034 16036     9 
16032 16031 16034 16037     9 
16033 16031 16034 16035     9 
16033 16031 16034 16036     9 
16033 16031 16034 16037     9 
15988 16038 16041 16042     9 
15988 16038 16041 16043     9 
15988 16038 16041 16044     9 
16039 16038 16041 16042     9 
16039 16038 16041 16043     9 
16039 16038 16041 16044     9 
16040 16038 16041 16042     9 
16040 16038 16041 16043     9 
16040 16038 16041 16044     9 
16038 16041 16044 16045     9 
16038 16041 16044 16046     9 
16038 16041 16044 16047     9 
16042 16041 16044 16045     9 
16042 16041 16044 16046     9 
16042 16041 16044 16047     9 
16043 16041 16044 16045     9 
16043 16041 16044 16046     9 
16043 16041 16044 16047     9 
16041 16044 16047 16048     9 
16041 16044 16047 16049     9 
16041 16044 16047 16050     9 
16045 16044 16047 16048     9 
16045 16044 16047 16049     9 
16045 16044 16047 16050     9 
16046 16044 16047 16048     9 
16046 16044 16047 16049     9 
16046 16044 16047 16050     9 
16044 16047 16050 16051     9 
16044 16047 16050 16052     9 
16044 16047 16050 16053     9 
16048 16047 16050 16051     9 
16048 16047 16050 16052     9 
16048 16047 16050 16053     9 
16049 16047 16050 16051     9 
16049 16047 16050 16052     9 
16049 16047 16050 16053     9 
16047 16050 16053 16054     9 
16047 16050 16053 16055     9 
16047 16050 16053 16056     9 
16051 16050 16053 16054     9 
16051 16050 16053 16055     9 
16051 16050 16053 16056     9 
16052 16050 16053 16054     9 
16052 16050 16053 16055     9 
16052 16050 16053 16056     9 
16050 16053 16056 16057     9 
16050 16053 16056 16058     9 
16050 16053 16056 16059     9 
16054 16053 16056 16057     9 
16054 16053 16056 16058     9 
16054 16053 16056 16059     9 
16055 16053 16056 16057     9 
16055 16053 16056 16058     9 
16055 16053 16056 16059     9 
16053 16056 16059 16060     9 
16053 16056 16059 16061     9 
16053 16056 16059 16062     9 
16057 16056 16059 16060     9 
16057 16056 16059 16061     9 
16057 16056 16059 16062     9 
16058 16056 16059 16060     9 
16058 16056 16059 16061     9 
16058 16056 16059 16062     9 
16056 16059 16062 16063     9 
16056 16059 16062 16064     9 
16056 16059 16062 16065     9 
16060 16059 16062 16063     9 
16060 16059 16062 16064     9 
16060 16059 16062 16065     9 
16061 16059 16062 16063     9 
16061 16059 16062 16064     9 
16061 16059 16062 16065     9 
16059 16062 16065 16066     9 
16059 16062 16065 16067     9 
16059 16062 16065 16068     9 
16063 16062 16065 16066     9 
16063 16062 16065 16067     9 
16063 16062 16065 16068     9 
16064 16062 16065 16066     9 
16064 16062 16065 16067     9 
16064 16062 16065 16068     9 
16062 16065 16068 16069     9 
16062 16065 16068 16070     9 
16062 16065 16068 16071     9 
16066 16065 16068 16069     9 
16066 16065 16068 16070     9 
16066 16065 16068 16071     9 
16067 16065 16068 16069     9 
16067 16065 16068 16070     9 
16067 16065 16068 16071     9 
16065 16068 16071 16072     9 
16065 16068 16071 16073     9 
16065 16068 16071 16074     9 
16069 16068 16071 16072     9 
16069 16068 16071 16073     9 
16069 16068 16071 16074     9 
16070 16068 16071 16072     9 
16070 16068 16071 16073     9 
16070 16068 16071 16074     9 
16068 16071 16074 16075     9 
16068 16071 16074 16076     9 
16068 16071 16074 16077     9 
16072 16071 16074 16075     9 
16072 16071 16074 16076     9 
16072 16071 16074 16077     9 
16073 16071 16074 16075     9 
16073 16071 16074 16076     9 
16073 16071 16074 16077     9 
16071 16074 16077 16078     9 
16071 16074 16077 16079     9 
16071 16074 16077 16080     9 
16075 16074 16077 16078     9 
16075 16074 16077 16079     9 
16075 16074 16077 16080     9 
16076 16074 16077 16078     9 
16076 16074 16077 16079     9 
16076 16074 16077 16080     9 
16085 16081 16082 16083     9 
16085 16081 16082 16084     9 
16085 16081 16082 16097     9 
16089 16081 16082 16083     9 
16089 16081 16082 16084     9 
16089 16081 16082 16097     9 
16093 16081 16082 16083     9 
16093 16081 16082 16084     9 
16093 16081 16082 16097     9 
16082 16081 16085 16086     9 
16082 16081 16085 16087     9 
16082 16081 16085 16088     9 
16089 16081 16085 16086     9 
16089 16081 16085 16087     9 
16089 16081 16085 16088     9 
16093 16081 16085 16086     9 
16093 16081 16085 16087     9 
16093 16081 16085 16088     9 
16082 16081 16089 16090     9 
16082 16081 16089 16091     9 
16082 16081 16089 16092     9 
16085 16081 16089 16090     9 
16085 16081 16089 16091     9 
16085 16081 16089 16092     9 
16093 16081 16089 16090     9 
16093 16081 16089 16091     9 
16093 16081 16089 16092     9 
16082 16081 16093 16094     9 
16082 16081 16093 16095     9 
16082 16081 16093 16096     9 
16085 16081 16093 16094     9 
16085 16081 16093 16095     9 
16085 16081 16093 16096     9 
16089 16081 16093 16094     9 
16089 16081 16093 16095     9 
16089 16081 16093 16096     9 
16081 16082 16097 16098     9 
16081 16082 16097 16099     9 
16081 16082 16097 16103     9 
16083 16082 16097 16098     9 
16083 16082 16097 16099     9 
16083 16082 16097 16103     9 
16084 16082 16097 16098     9 
16084 16082 16097 16099     9 
16084 16082 16097 16103     9 
16082 16097 16103 16100     9 
16098 16097 16103 16100     9 
16099 16097 16103 16100     9 
16101 16100 16103 16097     9 
16102 16100 16103 16097     9 
16104 16100 16103 16097     9 
16101 16100 16104 16105     9 
16102 16100 16104 16105     9 
16103 16100 16104 16105     9 
16100 16104 16105 16106     9 
16100 16104 16105 16107     9 
16100 16104 16105 16108     9 
16104 16105 16108 16109     9 
16104 16105 16108 16110     9 
16104 16105 16108 16116     9 
16106 16105 16108 16109     9 
16106 16105 16108 16110     9 
16106 16105 16108 16116     9 
16107 16105 16108 16109     9 
16107 16105 16108 16110     9 
16107 16105 16108 16116     9 
16105 16108 16110 16111     9 
16109 16108 16110 16111     9 
16116 16108 16110 16111     9 
16105 16108 16116 16117     9 
16105 16108 16116 16118     9 
16105 16108 16116 16119     9 
16109 16108 16116 16117     9 
16109 16108 16116 16118     9 
16109 16108 16116 16119     9 
16110 16108 16116 16117     9 
16110 16108 16116 16118     9 
16110 16108 16116 16119     9 
16108 16110 16111 16112     9 
16108 16110 16111 16113     9 
16110 16111 16113 16114     9 
16110 16111 16113 16115     9 
16110 16111 16113 16125     9 
16112 16111 16113 16114     9 
16112 16111 16113 16115     9 
16112 16111 16113 16125     9 
16111 16113 16125 16126     9 
16111 16113 16125 16127     9 
16111 16113 16125 16128     9 
16114 16113 16125 16126     9 
16114 16113 16125 16127     9 
16114 16113 16125 16128     9 
16115 16113 16125 16126     9 
16115 16113 16125 16127     9 
16115 16113 16125 16128     9 
16108 16116 16119 16120     9 
16117 16116 16119 16120     9 
16118 16116 16119 16120     9 
16116 16119 16120 16121     9 
16116 16119 16120 16122     9 
16119 16120 16122 16123     9 
16119 16120 16122 16124     9 
16119 16120 16122 16172     9 
16121 16120 16122 16123     9 
16121 16120 16122 16124     9 
16121 16120 16122 16172     9 
16120 16122 16172 16173     9 
16120 16122 16172 16174     9 
16120 16122 16172 16175     9 
16123 16122 16172 16173     9 
16123 16122 16172 16174     9 
16123 16122 16172 16175     9 
16124 16122 16172 16173     9 
16124 16122 16172 16174     9 
16124 16122 16172 16175     9 
16113 16125 16128 16129     9 
16113 16125 16128 16130     9 
16113 16125 16128 16131     9 
16126 16125 16128 16129     9 
16126 16125 16128 16130     9 
16126 16125 16128 16131     9 
16127 16125 16128 16129     9 
16127 16125 16128 16130     9 
16127 16125 16128 16131     9 
16125 16128 16131 16132     9 
16125 16128 16131 16133     9 
16125 16128 16131 16134     9 
16129 16128 16131 16132     9 
16129 16128 16131 16133     9 
16129 16128 16131 16134     9 
16130 16128 16131 16132     9 
16130 16128 16131 16133     9 
16130 16128 16131 16134     9 
16128 16131 16134 16135     9 
16128 16131 16134 16136     9 
16128 16131 16134 16137     9 
16132 16131 16134 16135     9 
16132 16131 16134 16136     9 
16132 16131 16134 16137     9 
16133 16131 16134 16135     9 
16133 16131 16134 16136     9 
16133 16131 16134 16137     9 
16131 16134 16137 16138     9 
16131 16134 16137 16139     9 
16131 16134 16137 16140     9 
16135 16134 16137 16138     9 
16135 16134 16137 16139     9 
16135 16134 16137 16140     9 
16136 16134 16137 16138     9 
16136 16134 16137 16139     9 
16136 16134 16137 16140     9 
16134 16137 16140 16141     9 
16134 16137 16140 16142     9 
16134 16137 16140 16143     9 
16138 16137 16140 16141     9 
16138 16137 16140 16142     9 
16138 16137 16140 16143     9 
16139 16137 16140 16141     9 
16139 16137 16140 16142     9 
16139 16137 16140 16143     9 
16137 16140 16143 16144     9 
16137 16140 16143 16145     9 
16141 16140 16143 16144     9 
16141 16140 16143 16145     9 
16142 16140 16143 16144     9 
16142 16140 16143 16145     9 
16140 16143 16145 16146     9 
16140 16143 16145 16147     9 
16144 16143 16145 16146     9 
16144 16143 16145 16147     9 
16143 16145 16147 16148     9 
16143 16145 16147 16149     9 
16143 16145 16147 16150     9 
16146 16145 16147 16148     9 
16146 16145 16147 16149     9 
16146 16145 16147 16150     9 
16145 16147 16150 16151     9 
16145 16147 16150 16152     9 
16145 16147 16150 16153     9 
16148 16147 16150 16151     9 
16148 16147 16150 16152     9 
16148 16147 16150 16153     9 
16149 16147 16150 16151     9 
16149 16147 16150 16152     9 
16149 16147 16150 16153     9 
16147 16150 16153 16154     9 
16147 16150 16153 16155     9 
16147 16150 16153 16156     9 
16151 16150 16153 16154     9 
16151 16150 16153 16155     9 
16151 16150 16153 16156     9 
16152 16150 16153 16154     9 
16152 16150 16153 16155     9 
16152 16150 16153 16156     9 
16150 16153 16156 16157     9 
16150 16153 16156 16158     9 
16150 16153 16156 16159     9 
16154 16153 16156 16157     9 
16154 16153 16156 16158     9 
16154 16153 16156 16159     9 
16155 16153 16156 16157     9 
16155 16153 16156 16158     9 
16155 16153 16156 16159     9 
16153 16156 16159 16160     9 
16153 16156 16159 16161     9 
16153 16156 16159 16162     9 
16157 16156 16159 16160     9 
16157 16156 16159 16161     9 
16157 16156 16159 16162     9 
16158 16156 16159 16160     9 
16158 16156 16159 16161     9 
16158 16156 16159 16162     9 
16156 16159 16162 16163     9 
16156 16159 16162 16164     9 
16156 16159 16162 16165     9 
16160 16159 16162 16163     9 
16160 16159 16162 16164     9 
16160 16159 16162 16165     9 
16161 16159 16162 16163     9 
16161 16159 16162 16164     9 
16161 16159 16162 16165     9 
16159 16162 16165 16166     9 
16159 16162 16165 16167     9 
16159 16162 16165 16168     9 
16163 16162 16165 16166     9 
16163 16162 16165 16167     9 
16163 16162 16165 16168     9 
16164 16162 16165 16166     9 
16164 16162 16165 16167     9 
16164 16162 16165 16168     9 
16162 16165 16168 16169     9 
16162 16165 16168 16170     9 
16162 16165 16168 16171     9 
16166 16165 16168 16169     9 
16166 16165 16168 16170     9 
16166 16165 16168 16171     9 
16167 16165 16168 16169     9 
16167 16165 16168 16170     9 
16167 16165 16168 16171     9 
16122 16172 16175 16176     9 
16122 16172 16175 16177     9 
16122 16172 16175 16178     9 
16173 16172 16175 16176     9 
16173 16172 16175 16177     9 
16173 16172 16175 16178     9 
16174 16172 16175 16176     9 
16174 16172 16175 16177     9 
16174 16172 16175 16178     9 
16172 16175 16178 16179     9 
16172 16175 16178 16180     9 
16172 16175 16178 16181     9 
16176 16175 16178 16179     9 
16176 16175 16178 16180     9 
16176 16175 16178 16181     9 
16177 16175 16178 16179     9 
16177 16175 16178 16180     9 
16177 16175 16178 16181     9 
16175 16178 16181 16182     9 
16175 16178 16181 16183     9 
16175 16178 16181 16184     9 
16179 16178 16181 16182     9 
16179 16178 16181 16183     9 
16179 16178 16181 16184     9 
16180 16178 16181 16182     9 
16180 16178 16181 16183     9 
16180 16178 16181 16184     9 
16178 16181 16184 16185     9 
16178 16181 16184 16186     9 
16178 16181 16184 16187     9 
16182 16181 16184 16185     9 
16182 16181 16184 16186     9 
16182 16181 16184 16187     9 
16183 16181 16184 16185     9 
16183 16181 16184 16186     9 
16183 16181 16184 16187     9 
16181 16184 16187 16188     9 
16181 16184 16187 16189     9 
16181 16184 16187 16190     9 
16185 16184 16187 16188     9 
16185 16184 16187 16189     9 
16185 16184 16187 16190     9 
16186 16184 16187 16188     9 
16186 16184 16187 16189     9 
16186 16184 16187 16190     9 
16184 16187 16190 16191     9 
16184 16187 16190 16192     9 
16184 16187 16190 16193     9 
16188 16187 16190 16191     9 
16188 16187 16190 16192     9 
16188 16187 16190 16193     9 
16189 16187 16190 16191     9 
16189 16187 16190 16192     9 
16189 16187 16190 16193     9 
16187 16190 16193 16194     9 
16187 16190 16193 16195     9 
16187 16190 16193 16196     9 
16191 16190 16193 16194     9 
16191 16190 16193 16195     9 
16191 16190 16193 16196     9 
16192 16190 16193 16194     9 
16192 16190 16193 16195     9 
16192 16190 16193 16196     9 
16190 16193 16196 16197     9 
16190 16193 16196 16198     9 
16190 16193 16196 16199     9 
16194 16193 16196 16197     9 
16194 16193 16196 16198     9 
16194 16193 16196 16199     9 
16195 16193 16196 16197     9 
16195 16193 16196 16198     9 
16195 16193 16196 16199     9 
16193 16196 16199 16200     9 
16193 16196 16199 16201     9 
16193 16196 16199 16202     9 
16197 16196 16199 16200     9 
16197 16196 16199 16201     9 
16197 16196 16199 16202     9 
16198 16196 16199 16200     9 
16198 16196 16199 16201     9 
16198 16196 16199 16202     9 
16196 16199 16202 16203     9 
16196 16199 16202 16204     9 
16196 16199 16202 16205     9 
16200 16199 16202 16203     9 
16200 16199 16202 16204     9 
16200 16199 16202 16205     9 
16201 16199 16202 16203     9 
16201 16199 16202 16204     9 
16201 16199 16202 16205     9 
16199 16202 16205 16206     9 
16199 16202 16205 16207     9 
16199 16202 16205 16208     9 
16203 16202 16205 16206     9 
16203 16202 16205 16207     9 
16203 16202 16205 16208     9 
16204 16202 16205 16206     9 
16204 16202 16205 16207     9 
16204 16202 16205 16208     9 
16202 16205 16208 16209     9 
16202 16205 16208 16210     9 
16202 16205 16208 16211     9 
16206 16205 16208 16209     9 
16206 16205 16208 16210     9 
16206 16205 16208 16211     9 
16207 16205 16208 16209     9 
16207 16205 16208 16210     9 
16207 16205 16208 16211     9 
16205 16208 16211 16212     9 
16205 16208 16211 16213     9 
16205 16208 16211 16214     9 
16209 16208 16211 16212     9 
16209 16208 16211 16213     9 
16209 16208 16211 16214     9 
16210 16208 16211 16212     9 
16210 16208 16211 16213     9 
16210 16208 16211 16214     9 
16219 16215 16216 16217     9 
16219 16215 16216 16218     9 
16219 16215 16216 16231     9 
16223 16215 16216 16217     9 
16223 16215 16216 16218     9 
16223 16215 16216 16231     9 
16227 16215 16216 16217     9 
16227 16215 16216 16218     9 
16227 16215 16216 16231     9 
16216 16215 16219 16220     9 
16216 16215 16219 16221     9 
16216 16215 16219 16222     9 
16223 16215 16219 16220     9 
16223 16215 16219 16221     9 
16223 16215 16219 16222     9 
16227 16215 16219 16220     9 
16227 16215 16219 16221     9 
16227 16215 16219 16222     9 
16216 16215 16223 16224     9 
16216 16215 16223 16225     9 
16216 16215 16223 16226     9 
16219 16215 16223 16224     9 
16219 16215 16223 16225     9 
16219 16215 16223 16226     9 
16227 16215 16223 16224     9 
16227 16215 16223 16225     9 
16227 16215 16223 16226     9 
16216 16215 16227 16228     9 
16216 16215 16227 16229     9 
16216 16215 16227 16230     9 
16219 16215 16227 16228     9 
16219 16215 16227 16229     9 
16219 16215 16227 16230     9 
16223 16215 16227 16228     9 
16223 16215 16227 16229     9 
16223 16215 16227 16230     9 
16215 16216 16231 16232     9 
16215 16216 16231 16233     9 
16215 16216 16231 16237     9 
16217 16216 16231 16232     9 
16217 16216 16231 16233     9 
16217 16216 16231 16237     9 
16218 16216 16231 16232     9 
16218 16216 16231 16233     9 
16218 16216 16231 16237     9 
16216 16231 16237 16234     9 
16232 16231 16237 16234     9 
16233 16231 16237 16234     9 
16235 16234 16237 16231     9 
16236 16234 16237 16231     9 
16238 16234 16237 16231     9 
16235 16234 16238 16239     9 
16236 16234 16238 16239     9 
16237 16234 16238 16239     9 
16234 16238 16239 16240     9 
16234 16238 16239 16241     9 
16234 16238 16239 16242     9 
16238 16239 16242 16243     9 
16238 16239 16242 16244     9 
16238 16239 16242 16250     9 
16240 16239 16242 16243     9 
16240 16239 16242 16244     9 
16240 16239 16242 16250     9 
16241 16239 16242 16243     9 
16241 16239 16242 16244     9 
16241 16239 16242 16250     9 
16239 16242 16244 16245     9 
16243 16242 16244 16245     9 
16250 16242 16244 16245     9 
16239 16242 16250 16251     9 
16239 16242 16250 16252     9 
16239 16242 16250 16253     9 
16243 16242 16250 16251     9 
16243 16242 16250 16252     9 
16243 16242 16250 16253     9 
16244 16242 16250 16251     9 
16244 16242 16250 16252     9 
16244 16242 16250 16253     9 
16242 16244 16245 16246     9 
16242 16244 16245 16247     9 
16244 16245 16247 16248     9 
16244 16245 16247 16249     9 
16244 16245 16247 16259     9 
16246 16245 16247 16248     9 
16246 16245 16247 16249     9 
16246 16245 16247 16259     9 
16245 16247 16259 16260     9 
16245 16247 16259 16261     9 
16245 16247 16259 16262     9 
16248 16247 16259 16260     9 
16248 16247 16259 16261     9 
16248 16247 16259 16262     9 
16249 16247 16259 16260     9 
16249 16247 16259 16261     9 
16249 16247 16259 16262     9 
16242 16250 16253 16254     9 
16251 16250 16253 16254     9 
16252 16250 16253 16254     9 
16250 16253 16254 16255     9 
16250 16253 16254 16256     9 
16253 16254 16256 16257     9 
16253 16254 16256 16258     9 
16253 16254 16256 16306     9 
16255 16254 16256 16257     9 
16255 16254 16256 16258     9 
16255 16254 16256 16306     9 
16254 16256 16306 16307     9 
16254 16256 16306 16308     9 
16254 16256 16306 16309     9 
16257 16256 16306 16307     9 
16257 16256 16306 16308     9 
16257 16256 16306 16309     9 
16258 16256 16306 16307     9 
16258 16256 16306 16308     9 
16258 16256 16306 16309     9 
16247 16259 16262 16263     9 
16247 16259 16262 16264     9 
16247 16259 16262 16265     9 
16260 16259 16262 16263     9 
16260 16259 16262 16264     9 
16260 16259 16262 16265     9 
16261 16259 16262 16263     9 
16261 16259 16262 16264     9 
16261 16259 16262 16265     9 
16259 16262 16265 16266     9 
16259 16262 16265 16267     9 
16259 16262 16265 16268     9 
16263 16262 16265 16266     9 
16263 16262 16265 16267     9 
16263 16262 16265 16268     9 
16264 16262 16265 16266     9 
16264 16262 16265 16267     9 
16264 16262 16265 16268     9 
16262 16265 16268 16269     9 
16262 16265 16268 16270     9 
16262 16265 16268 16271     9 
16266 16265 16268 16269     9 
16266 16265 16268 16270     9 
16266 16265 16268 16271     9 
16267 16265 16268 16269     9 
16267 16265 16268 16270     9 
16267 16265 16268 16271     9 
16265 16268 16271 16272     9 
16265 16268 16271 16273     9 
16265 16268 16271 16274     9 
16269 16268 16271 16272     9 
16269 16268 16271 16273     9 
16269 16268 16271 16274     9 
16270 16268 16271 16272     9 
16270 16268 16271 16273     9 
16270 16268 16271 16274     9 
16268 16271 16274 16275     9 
16268 16271 16274 16276     9 
16268 16271 16274 16277     9 
16272 16271 16274 16275     9 
16272 16271 16274 16276     9 
16272 16271 16274 16277     9 
16273 16271 16274 16275     9 
16273 16271 16274 16276     9 
16273 16271 16274 16277     9 
16271 16274 16277 16278     9 
16271 16274 16277 16279     9 
16275 16274 16277 16278     9 
16275 16274 16277 16279     9 
16276 16274 16277 16278     9 
16276 16274 16277 16279     9 
16274 16277 16279 16280     9 
16274 16277 16279 16281     9 
16278 16277 16279 16280     9 
16278 16277 16279 16281     9 
16277 16279 16281 16282     9 
16277 16279 16281 16283     9 
16277 16279 16281 16284     9 
16280 16279 16281 16282     9 
16280 16279 16281 16283     9 
16280 16279 16281 16284     9 
16279 16281 16284 16285     9 
16279 16281 16284 16286     9 
16279 16281 16284 16287     9 
16282 16281 16284 16285     9 
16282 16281 16284 16286     9 
16282 16281 16284 16287     9 
16283 16281 16284 16285     9 
16283 16281 16284 16286     9 
16283 16281 16284 16287     9 
16281 16284 16287 16288     9 
16281 16284 16287 16289     9 
16281 16284 16287 16290     9 
16285 16284 16287 16288     9 
16285 16284 16287 16289     9 
16285 16284 16287 16290     9 
16286 16284 16287 16288     9 
16286 16284 16287 16289     9 
16286 16284 16287 16290     9 
16284 16287 16290 16291     9 
16284 16287 16290 16292     9 
16284 16287 16290 16293     9 
16288 16287 16290 16291     9 
16288 16287 16290 16292     9 
16288 16287 16290 16293     9 
16289 16287 16290 16291     9 
16289 16287 16290 16292     9 
16289 16287 16290 16293     9 
16287 16290 16293 16294     9 
16287 16290 16293 16295     9 
16287 16290 16293 16296     9 
16291 16290 16293 16294     9 
16291 16290 16293 16295     9 
16291 16290 16293 16296     9 
16292 16290 16293 16294     9 
16292 16290 16293 16295     9 
16292 16290 16293 16296     9 
16290 16293 16296 16297     9 
16290 16293 16296 16298     9 
16290 16293 16296 16299     9 
16294 16293 16296 16297     9 
16294 16293 16296 16298     9 
16294 16293 16296 16299     9 
16295 16293 16296 16297     9 
16295 16293 16296 16298     9 
16295 16293 16296 16299     9 
16293 16296 16299 16300     9 
16293 16296 16299 16301     9 
16293 16296 16299 16302     9 
16297 16296 16299 16300     9 
16297 16296 16299 16301     9 
16297 16296 16299 16302     9 
16298 16296 16299 16300     9 
16298 16296 16299 16301     9 
16298 16296 16299 16302     9 
16296 16299 16302 16303     9 
16296 16299 16302 16304     9 
16296 16299 16302 16305     9 
16300 16299 16302 16303     9 
16300 16299 16302 16304     9 
16300 16299 16302 16305     9 
16301 16299 16302 16303     9 
16301 16299 16302 16304     9 
16301 16299 16302 16305     9 
16256 16306 16309 16310     9 
16256 16306 16309 16311     9 
16256 16306 16309 16312     9 
16307 16306 16309 16310     9 
16307 16306 16309 16311     9 
16307 16306 16309 16312     9 
16308 16306 16309 16310     9 
16308 16306 16309 16311     9 
16308 16306 16309 16312     9 
16306 16309 16312 16313     9 
16306 16309 16312 16314     9 
16306 16309 16312 16315     9 
16310 16309 16312 16313     9 
16310 16309 16312 16314     9 
16310 16309 16312 16315     9 
16311 16309 16312 16313     9 
16311 16309 16312 16314     9 
16311 16309 16312 16315     9 
16309 16312 16315 16316     9 
16309 16312 16315 16317     9 
16309 16312 16315 16318     9 
16313 16312 16315 16316     9 
16313 16312 16315 16317     9 
16313 16312 16315 16318     9 
16314 16312 16315 16316     9 
16314 16312 16315 16317     9 
16314 16312 16315 16318     9 
16312 16315 16318 16319     9 
16312 16315 16318 16320     9 
16312 16315 16318 16321     9 
16316 16315 16318 16319     9 
16316 16315 16318 16320     9 
16316 16315 16318 16321     9 
16317 16315 16318 16319     9 
16317 16315 16318 16320     9 
16317 16315 16318 16321     9 
16315 16318 16321 16322     9 
16315 16318 16321 16323     9 
16315 16318 16321 16324     9 
16319 16318 16321 16322     9 
16319 16318 16321 16323     9 
16319 16318 16321 16324     9 
16320 16318 16321 16322     9 
16320 16318 16321 16323     9 
16320 16318 16321 16324     9 
16318 16321 16324 16325     9 
16318 16321 16324 16326     9 
16318 16321 16324 16327     9 
16322 16321 16324 16325     9 
16322 16321 16324 16326     9 
16322 16321 16324 16327     9 
16323 16321 16324 16325     9 
16323 16321 16324 16326     9 
16323 16321 16324 16327     9 
16321 16324 16327 16328     9 
16321 16324 16327 16329     9 
16321 16324 16327 16330     9 
16325 16324 16327 16328     9 
16325 16324 16327 16329     9 
16325 16324 16327 16330     9 
16326 16324 16327 16328     9 
16326 16324 16327 16329     9 
16326 16324 16327 16330     9 
16324 16327 16330 16331     9 
16324 16327 16330 16332     9 
16324 16327 16330 16333     9 
16328 16327 16330 16331     9 
16328 16327 16330 16332     9 
16328 16327 16330 16333     9 
16329 16327 16330 16331     9 
16329 16327 16330 16332     9 
16329 16327 16330 16333     9 
16327 16330 16333 16334     9 
16327 16330 16333 16335     9 
16327 16330 16333 16336     9 
16331 16330 16333 16334     9 
16331 16330 16333 16335     9 
16331 16330 16333 16336     9 
16332 16330 16333 16334     9 
16332 16330 16333 16335     9 
16332 16330 16333 16336     9 
16330 16333 16336 16337     9 
16330 16333 16336 16338     9 
16330 16333 16336 16339     9 
16334 16333 16336 16337     9 
16334 16333 16336 16338     9 
16334 16333 16336 16339     9 
16335 16333 16336 16337     9 
16335 16333 16336 16338     9 
16335 16333 16336 16339     9 
16333 16336 16339 16340     9 
16333 16336 16339 16341     9 
16333 16336 16339 16342     9 
16337 16336 16339 16340     9 
16337 16336 16339 16341     9 
16337 16336 16339 16342     9 
16338 16336 16339 16340     9 
16338 16336 16339 16341     9 
16338 16336 16339 16342     9 
16336 16339 16342 16343     9 
16336 16339 16342 16344     9 
16336 16339 16342 16345     9 
16340 16339 16342 16343     9 
16340 16339 16342 16344     9 
16340 16339 16342 16345     9 
16341 16339 16342 16343     9 
16341 16339 16342 16344     9 
16341 16339 16342 16345     9 
16339 16342 16345 16346     9 
16339 16342 16345 16347     9 
16339 16342 16345 16348     9 
16343 16342 16345 16346     9 
16343 16342 16345 16347     9 
16343 16342 16345 16348     9 
16344 16342 16345 16346     9 
16344 16342 16345 16347     9 
16344 16342 16345 16348     9 
16353 16349 16350 16351     9 
16353 16349 16350 16352     9 
16353 16349 16350 16365     9 
16357 16349 16350 16351     9 
16357 16349 16350 16352     9 
16357 16349 16350 16365     9 
16361 16349 16350 16351     9 
16361 16349 16350 16352     9 
16361 16349 16350 16365     9 
16350 16349 16353 16354     9 
16350 16349 16353 16355     9 
16350 16349 16353 16356     9 
16357 16349 16353 16354     9 
16357 16349 16353 16355     9 
16357 16349 16353 16356     9 
16361 16349 16353 16354     9 
16361 16349 16353 16355     9 
16361 16349 16353 16356     9 
16350 16349 16357 16358     9 
16350 16349 16357 16359     9 
16350 16349 16357 16360     9 
16353 16349 16357 16358     9 
16353 16349 16357 16359     9 
16353 16349 16357 16360     9 
16361 16349 16357 16358     9 
16361 16349 16357 16359     9 
16361 16349 16357 16360     9 
16350 16349 16361 16362     9 
16350 16349 16361 16363     9 
16350 16349 16361 16364     9 
16353 16349 16361 16362     9 
16353 16349 16361 16363     9 
16353 16349 16361 16364     9 
16357 16349 16361 16362     9 
16357 16349 16361 16363     9 
16357 16349 16361 16364     9 
16349 16350 16365 16366     9 
16349 16350 16365 16367     9 
16349 16350 16365 16371     9 
16351 16350 16365 16366     9 
16351 16350 16365 16367     9 
16351 16350 16365 16371     9 
16352 16350 16365 16366     9 
16352 16350 16365 16367     9 
16352 16350 16365 16371     9 
16350 16365 16371 16368     9 
16366 16365 16371 16368     9 
16367 16365 16371 16368     9 
16369 16368 16371 16365     9 
16370 16368 16371 16365     9 
16372 16368 16371 16365     9 
16369 16368 16372 16373     9 
16370 16368 16372 16373     9 
16371 16368 16372 16373     9 
16368 16372 16373 16374     9 
16368 16372 16373 16375     9 
16368 16372 16373 16376     9 
16372 16373 16376 16377     9 
16372 16373 16376 16378     9 
16372 16373 16376 16384     9 
16374 16373 16376 16377     9 
16374 16373 16376 16378     9 
16374 16373 16376 16384     9 
16375 16373 16376 16377     9 
16375 16373 16376 16378     9 
16375 16373 16376 16384     9 
16373 16376 16378 16379     9 
16377 16376 16378 16379     9 
16384 16376 16378 16379     9 
16373 16376 16384 16385     9 
16373 16376 16384 16386     9 
16373 16376 16384 16387     9 
16377 16376 16384 16385     9 
16377 16376 16384 16386     9 
16377 16376 16384 16387     9 
16378 16376 16384 16385     9 
16378 16376 16384 16386     9 
16378 16376 16384 16387     9 
16376 16378 16379 16380     9 
16376 16378 16379 16381     9 
16378 16379 16381 16382     9 
16378 16379 16381 16383     9 
16378 16379 16381 16393     9 
16380 16379 16381 16382     9 
16380 16379 16381 16383     9 
16380 16379 16381 16393     9 
16379 16381 16393 16394     9 
16379 16381 16393 16395     9 
16379 16381 16393 16396     9 
16382 16381 16393 16394     9 
16382 16381 16393 16395     9 
16382 16381 16393 16396     9 
16383 16381 16393 16394     9 
16383 16381 16393 16395     9 
16383 16381 16393 16396     9 
16376 16384 16387 16388     9 
16385 16384 16387 16388     9 
16386 16384 16387 16388     9 
16384 16387 16388 16389     9 
16384 16387 16388 16390     9 
16387 16388 16390 16391     9 
16387 16388 16390 16392     9 
16387 16388 16390 16440     9 
16389 16388 16390 16391     9 
16389 16388 16390 16392     9 
16389 16388 16390 16440     9 
16388 16390 16440 16441     9 
16388 16390 16440 16442     9 
16388 16390 16440 16443     9 
16391 16390 16440 16441     9 
16391 16390 16440 16442     9 
16391 16390 16440 16443     9 
16392 16390 16440 16441     9 
16392 16390 16440 16442     9 
16392 16390 16440 16443     9 
16381 16393 16396 16397     9 
16381 16393 16396 16398     9 
16381 16393 16396 16399     9 
16394 16393 16396 16397     9 
16394 16393 16396 16398     9 
16394 16393 16396 16399     9 
16395 16393 16396 16397     9 
16395 16393 16396 16398     9 
16395 16393 16396 16399     9 
16393 16396 16399 16400     9 
16393 16396 16399 16401     9 
16393 16396 16399 16402     9 
16397 16396 16399 16400     9 
16397 16396 16399 16401     9 
16397 16396 16399 16402     9 
16398 16396 16399 16400     9 
16398 16396 16399 16401     9 
16398 16396 16399 16402     9 
16396 16399 16402 16403     9 
16396 16399 16402 16404     9 
16396 16399 16402 16405     9 
16400 16399 16402 16403     9 
16400 16399 16402 16404     9 
16400 16399 16402 16405     9 
16401 16399 16402 16403     9 
16401 16399 16402 16404     9 
16401 16399 16402 16405     9 
16399 16402 16405 16406     9 
16399 16402 16405 16407     9 
16399 16402 16405 16408     9 
16403 16402 16405 16406     9 
16403 16402 16405 16407     9 
16403 16402 16405 16408     9 
16404 16402 16405 16406     9 
16404 16402 16405 16407     9 
16404 16402 16405 16408     9 
16402 16405 16408 16409     9 
16402 16405 16408 16410     9 
16402 16405 16408 16411     9 
16406 16405 16408 16409     9 
16406 16405 16408 16410     9 
16406 16405 16408 16411     9 
16407 16405 16408 16409     9 
16407 16405 16408 16410     9 
16407 16405 16408 16411     9 
16405 16408 16411 16412     9 
16405 16408 16411 16413     9 
16409 16408 16411 16412     9 
16409 16408 16411 16413     9 
16410 16408 16411 16412     9 
16410 16408 16411 16413     9 
16408 16411 16413 16414     9 
16408 16411 16413 16415     9 
16412 16411 16413 16414     9 
16412 16411 16413 16415     9 
16411 16413 16415 16416     9 
16411 16413 16415 16417     9 
16411 16413 16415 16418     9 
16414 16413 16415 16416     9 
16414 16413 16415 16417     9 
16414 16413 16415 16418     9 
16413 16415 16418 16419     9 
16413 16415 16418 16420     9 
16413 16415 16418 16421     9 
16416 16415 16418 16419     9 
16416 16415 16418 16420     9 
16416 16415 16418 16421     9 
16417 16415 16418 16419     9 
16417 16415 16418 16420     9 
16417 16415 16418 16421     9 
16415 16418 16421 16422     9 
16415 16418 16421 16423     9 
16415 16418 16421 16424     9 
16419 16418 16421 16422     9 
16419 16418 16421 16423     9 
16419 16418 16421 16424     9 
16420 16418 16421 16422     9 
16420 16418 16421 16423     9 
16420 16418 16421 16424     9 
16418 16421 16424 16425     9 
16418 16421 16424 16426     9 
16418 16421 16424 16427     9 
16422 16421 16424 16425     9 
16422 16421 16424 16426     9 
16422 16421 16424 16427     9 
16423 16421 16424 16425     9 
16423 16421 16424 16426     9 
16423 16421 16424 16427     9 
16421 16424 16427 16428     9 
16421 16424 16427 16429     9 
16421 16424 16427 16430     9 
16425 16424 16427 16428     9 
16425 16424 16427 16429     9 
16425 16424 16427 16430     9 
16426 16424 16427 16428     9 
16426 16424 16427 16429     9 
16426 16424 16427 16430     9 
16424 16427 16430 16431     9 
16424 16427 16430 16432     9 
16424 16427 16430 16433     9 
16428 16427 16430 16431     9 
16428 16427 16430 16432     9 
16428 16427 16430 16433     9 
16429 16427 16430 16431     9 
16429 16427 16430 16432     9 
16429 16427 16430 16433     9 
16427 16430 16433 16434     9 
16427 16430 16433 16435     9 
16427 16430 16433 16436     9 
16431 16430 16433 16434     9 
16431 16430 16433 16435     9 
16431 16430 16433 16436     9 
16432 16430 16433 16434     9 
16432 16430 16433 16435     9 
16432 16430 16433 16436     9 
16430 16433 16436 16437     9 
16430 16433 16436 16438     9 
16430 16433 16436 16439     9 
16434 16433 16436 16437     9 
16434 16433 16436 16438     9 
16434 16433 16436 16439     9 
16435 16433 16436 16437     9 
16435 16433 16436 16438     9 
16435 16433 16436 16439     9 
16390 16440 16443 16444     9 
16390 16440 16443 16445     9 
16390 16440 16443 16446     9 
16441 16440 16443 16444     9 
16441 16440 16443 16445     9 
16441 16440 16443 16446     9 
16442 16440 16443 16444     9 
16442 16440 16443 16445     9 
16442 16440 16443 16446     9 
16440 16443 16446 16447     9 
16440 16443 16446 16448     9 
16440 16443 16446 16449     9 
16444 16443 16446 16447     9 
16444 16443 16446 16448     9 
16444 16443 16446 16449     9 
16445 16443 16446 16447     9 
16445 16443 16446 16448     9 
16445 16443 16446 16449     9 
16443 16446 16449 16450     9 
16443 16446 16449 16451     9 
16443 16446 16449 16452     9 
16447 16446 16449 16450     9 
16447 16446 16449 16451     9 
16447 16446 16449 16452     9 
16448 16446 16449 16450     9 
16448 16446 16449 16451     9 
16448 16446 16449 16452     9 
16446 16449 16452 16453     9 
16446 16449 16452 16454     9 
16446 16449 16452 16455     9 
16450 16449 16452 16453     9 
16450 16449 16452 16454     9 
16450 16449 16452 16455     9 
16451 16449 16452 16453     9 
16451 16449 16452 16454     9 
16451 16449 16452 16455     9 
16449 16452 16455 16456     9 
16449 16452 16455 16457     9 
16449 16452 16455 16458     9 
16453 16452 16455 16456     9 
16453 16452 16455 16457     9 
16453 16452 16455 16458     9 
16454 16452 16455 16456     9 
16454 16452 16455 16457     9 
16454 16452 16455 16458     9 
16452 16455 16458 16459     9 
16452 16455 16458 16460     9 
16452 16455 16458 16461     9 
16456 16455 16458 16459     9 
16456 16455 16458 16460     9 
16456 16455 16458 16461     9 
16457 16455 16458 16459     9 
16457 16455 16458 16460     9 
16457 16455 16458 16461     9 
16455 16458 16461 16462     9 
16455 16458 16461 16463     9 
16455 16458 16461 16464     9 
16459 16458 16461 16462     9 
16459 16458 16461 16463     9 
16459 16458 16461 16464     9 
16460 16458 16461 16462     9 
16460 16458 16461 16463     9 
16460 16458 16461 16464     9 
16458 16461 16464 16465     9 
16458 16461 16464 16466     9 
16458 16461 16464 16467     9 
16462 16461 16464 16465     9 
16462 16461 16464 16466     9 
16462 16461 16464 16467     9 
16463 16461 16464 16465     9 
16463 16461 16464 16466     9 
16463 16461 16464 16467     9 
16461 16464 16467 16468     9 
16461 16464 16467 16469     9 
16461 16464 16467 16470     9 
16465 16464 16467 16468     9 
16465 16464 16467 16469     9 
16465 16464 16467 16470     9 
16466 16464 16467 16468     9 
16466 16464 16467 16469     9 
16466 16464 16467 16470     9 
16464 16467 16470 16471     9 
16464 16467 16470 16472     9 
16464 16467 16470 16473     9 
16468 16467 16470 16471     9 
16468 16467 16470 16472     9 
16468 16467 16470 16473     9 
16469 16467 16470 16471     9 
16469 16467 16470 16472     9 
16469 16467 16470 16473     9 
16467 16470 16473 16474     9 
16467 16470 16473 16475     9 
16467 16470 16473 16476     9 
16471 16470 16473 16474     9 
16471 16470 16473 16475     9 
16471 16470 16473 16476     9 
16472 16470 16473 16474     9 
16472 16470 16473 16475     9 
16472 16470 16473 16476     9 
16470 16473 16476 16477     9 
16470 16473 16476 16478     9 
16470 16473 16476 16479     9 
16474 16473 16476 16477     9 
16474 16473 16476 16478     9 
16474 16473 16476 16479     9 
16475 16473 16476 16477     9 
16475 16473 16476 16478     9 
16475 16473 16476 16479     9 
16473 16476 16479 16480     9 
16473 16476 16479 16481     9 
16473 16476 16479 16482     9 
16477 16476 16479 16480     9 
16477 16476 16479 16481     9 
16477 16476 16479 16482     9 
16478 16476 16479 16480     9 
16478 16476 16479 16481     9 
16478 16476 16479 16482     9 
16487 16483 16484 16485     9 
16487 16483 16484 16486     9 
16487 16483 16484 16499     9 
16491 16483 16484 16485     9 
16491 16483 16484 16486     9 
16491 16483 16484 16499     9 
16495 16483 16484 16485     9 
16495 16483 16484 16486     9 
16495 16483 16484 16499     9 
16484 16483 16487 16488     9 
16484 16483 16487 16489     9 
16484 16483 16487 16490     9 
16491 16483 16487 16488     9 
16491 16483 16487 16489     9 
16491 16483 16487 16490     9 
16495 16483 16487 16488     9 
16495 16483 16487 16489     9 
16495 16483 16487 16490     9 
16484 16483 16491 16492     9 
16484 16483 16491 16493     9 
16484 16483 16491 16494     9 
16487 16483 16491 16492     9 
16487 16483 16491 16493     9 
16487 16483 16491 16494     9 
16495 16483 16491 16492     9 
16495 16483 16491 16493     9 
16495 16483 16491 16494     9 
16484 16483 16495 16496     9 
16484 16483 16495 16497     9 
16484 16483 16495 16498     9 
16487 16483 16495 16496     9 
16487 16483 16495 16497     9 
16487 16483 16495 16498     9 
16491 16483 16495 16496     9 
16491 16483 16495 16497     9 
16491 16483 16495 16498     9 
16483 16484 16499 16500     9 
16483 16484 16499 16501     9 
16483 16484 16499 16505     9 
16485 16484 16499 16500     9 
16485 16484 16499 16501     9 
16485 16484 16499 16505     9 
16486 16484 16499 16500     9 
16486 16484 16499 16501     9 
16486 16484 16499 16505     9 
16484 16499 16505 16502     9 
16500 16499 16505 16502     9 
16501 16499 16505 16502     9 
16503 16502 16505 16499     9 
16504 16502 16505 16499     9 
16506 16502 16505 16499     9 
16503 16502 16506 16507     9 
16504 16502 16506 16507     9 
16505 16502 16506 16507     9 
16502 16506 16507 16508     9 
16502 16506 16507 16509     9 
16502 16506 16507 16510     9 
16506 16507 16510 16511     9 
16506 16507 16510 16512     9 
16506 16507 16510 16518     9 
16508 16507 16510 16511     9 
16508 16507 16510 16512     9 
16508 16507 16510 16518     9 
16509 16507 16510 16511     9 
16509 16507 16510 16512     9 
16509 16507 16510 16518     9 
16507 16510 16512 16513     9 
16511 16510 16512 16513     9 
16518 16510 16512 16513     9 
16507 16510 16518 16519     9 
16507 16510 16518 16520     9 
16507 16510 16518 16521     9 
16511 16510 16518 16519     9 
16511 16510 16518 16520     9 
16511 16510 16518 16521     9 
16512 16510 16518 16519     9 
16512 16510 16518 16520     9 
16512 16510 16518 16521     9 
16510 16512 16513 16514     9 
16510 16512 16513 16515     9 
16512 16513 16515 16516     9 
16512 16513 16515 16517     9 
16512 16513 16515 16527     9 
16514 16513 16515 16516     9 
16514 16513 16515 16517     9 
16514 16513 16515 16527     9 
16513 16515 16527 16528     9 
16513 16515 16527 16529     9 
16513 16515 16527 16530     9 
16516 16515 16527 16528     9 
16516 16515 16527 16529     9 
16516 16515 16527 16530     9 
16517 16515 16527 16528     9 
16517 16515 16527 16529     9 
16517 16515 16527 16530     9 
16510 16518 16521 16522     9 
16519 16518 16521 16522     9 
16520 16518 16521 16522     9 
16518 16521 16522 16523     9 
16518 16521 16522 16524     9 
16521 16522 16524 16525     9 
16521 16522 16524 16526     9 
16521 16522 16524 16574     9 
16523 16522 16524 16525     9 
16523 16522 16524 16526     9 
16523 16522 16524 16574     9 
16522 16524 16574 16575     9 
16522 16524 16574 16576     9 
16522 16524 16574 16577     9 
16525 16524 16574 16575     9 
16525 16524 16574 16576     9 
16525 16524 16574 16577     9 
16526 16524 16574 16575     9 
16526 16524 16574 16576     9 
16526 16524 16574 16577     9 
16515 16527 16530 16531     9 
16515 16527 16530 16532     9 
16515 16527 16530 16533     9 
16528 16527 16530 16531     9 
16528 16527 16530 16532     9 
16528 16527 16530 16533     9 
16529 16527 16530 16531     9 
16529 16527 16530 16532     9 
16529 16527 16530 16533     9 
16527 16530 16533 16534     9 
16527 16530 16533 16535     9 
16527 16530 16533 16536     9 
16531 16530 16533 16534     9 
16531 16530 16533 16535     9 
16531 16530 16533 16536     9 
16532 16530 16533 16534     9 
16532 16530 16533 16535     9 
16532 16530 16533 16536     9 
16530 16533 16536 16537     9 
16530 16533 16536 16538     9 
16530 16533 16536 16539     9 
16534 16533 16536 16537     9 
16534 16533 16536 16538     9 
16534 16533 16536 16539     9 
16535 16533 16536 16537     9 
16535 16533 16536 16538     9 
16535 16533 16536 16539     9 
16533 16536 16539 16540     9 
16533 16536 16539 16541     9 
16533 16536 16539 16542     9 
16537 16536 16539 16540     9 
16537 16536 16539 16541     9 
16537 16536 16539 16542     9 
16538 16536 16539 16540     9 
16538 16536 16539 16541     9 
16538 16536 16539 16542     9 
16536 16539 16542 16543     9 
16536 16539 16542 16544     9 
16536 16539 16542 16545     9 
16540 16539 16542 16543     9 
16540 16539 16542 16544     9 
16540 16539 16542 16545     9 
16541 16539 16542 16543     9 
16541 16539 16542 16544     9 
16541 16539 16542 16545     9 
16539 16542 16545 16546     9 
16539 16542 16545 16547     9 
16543 16542 16545 16546     9 
16543 16542 16545 16547     9 
16544 16542 16545 16546     9 
16544 16542 16545 16547     9 
16542 16545 16547 16548     9 
16542 16545 16547 16549     9 
16546 16545 16547 16548     9 
16546 16545 16547 16549     9 
16545 16547 16549 16550     9 
16545 16547 16549 16551     9 
16545 16547 16549 16552     9 
16548 16547 16549 16550     9 
16548 16547 16549 16551     9 
16548 16547 16549 16552     9 
16547 16549 16552 16553     9 
16547 16549 16552 16554     9 
16547 16549 16552 16555     9 
16550 16549 16552 16553     9 
16550 16549 16552 16554     9 
16550 16549 16552 16555     9 
16551 16549 16552 16553     9 
16551 16549 16552 16554     9 
16551 16549 16552 16555     9 
16549 16552 16555 16556     9 
16549 16552 16555 16557     9 
16549 16552 16555 16558     9 
16553 16552 16555 16556     9 
16553 16552 16555 16557     9 
16553 16552 16555 16558     9 
16554 16552 16555 16556     9 
16554 16552 16555 16557     9 
16554 16552 16555 16558     9 
16552 16555 16558 16559     9 
16552 16555 16558 16560     9 
16552 16555 16558 16561     9 
16556 16555 16558 16559     9 
16556 16555 16558 16560     9 
16556 16555 16558 16561     9 
16557 16555 16558 16559     9 
16557 16555 16558 16560     9 
16557 16555 16558 16561     9 
16555 16558 16561 16562     9 
16555 16558 16561 16563     9 
16555 16558 16561 16564     9 
16559 16558 16561 16562     9 
16559 16558 16561 16563     9 
16559 16558 16561 16564     9 
16560 16558 16561 16562     9 
16560 16558 16561 16563     9 
16560 16558 16561 16564     9 
16558 16561 16564 16565     9 
16558 16561 16564 16566     9 
16558 16561 16564 16567     9 
16562 16561 16564 16565     9 
16562 16561 16564 16566     9 
16562 16561 16564 16567     9 
16563 16561 16564 16565     9 
16563 16561 16564 16566     9 
16563 16561 16564 16567     9 
16561 16564 16567 16568     9 
16561 16564 16567 16569     9 
16561 16564 16567 16570     9 
16565 16564 16567 16568     9 
16565 16564 16567 16569     9 
16565 16564 16567 16570     9 
16566 16564 16567 16568     9 
16566 16564 16567 16569     9 
16566 16564 16567 16570     9 
16564 16567 16570 16571     9 
16564 16567 16570 16572     9 
16564 16567 16570 16573     9 
16568 16567 16570 16571     9 
16568 16567 16570 16572     9 
16568 16567 16570 16573     9 
16569 16567 16570 16571     9 
16569 16567 16570 16572     9 
16569 16567 16570 16573     9 
16524 16574 16577 16578     9 
16524 16574 16577 16579     9 
16524 16574 16577 16580     9 
16575 16574 16577 16578     9 
16575 16574 16577 16579     9 
16575 16574 16577 16580     9 
16576 16574 16577 16578     9 
16576 16574 16577 16579     9 
16576 16574 16577 16580     9 
16574 16577 16580 16581     9 
16574 16577 16580 16582     9 
16574 16577 16580 16583     9 
16578 16577 16580 16581     9 
16578 16577 16580 16582     9 
16578 16577 16580 16583     9 
16579 16577 16580 16581     9 
16579 16577 16580 16582     9 
16579 16577 16580 16583     9 
16577 16580 16583 16584     9 
16577 16580 16583 16585     9 
16577 16580 16583 16586     9 
16581 16580 16583 16584     9 
16581 16580 16583 16585     9 
16581 16580 16583 16586     9 
16582 16580 16583 16584     9 
16582 16580 16583 16585     9 
16582 16580 16583 16586     9 
16580 16583 16586 16587     9 
16580 16583 16586 16588     9 
16580 16583 16586 16589     9 
16584 16583 16586 16587     9 
16584 16583 16586 16588     9 
16584 16583 16586 16589     9 
16585 16583 16586 16587     9 
16585 16583 16586 16588     9 
16585 16583 16586 16589     9 
16583 16586 16589 16590     9 
16583 16586 16589 16591     9 
16583 16586 16589 16592     9 
16587 16586 16589 16590     9 
16587 16586 16589 16591     9 
16587 16586 16589 16592     9 
16588 16586 16589 16590     9 
16588 16586 16589 16591     9 
16588 16586 16589 16592     9 
16586 16589 16592 16593     9 
16586 16589 16592 16594     9 
16586 16589 16592 16595     9 
16590 16589 16592 16593     9 
16590 16589 16592 16594     9 
16590 16589 16592 16595     9 
16591 16589 16592 16593     9 
16591 16589 16592 16594     9 
16591 16589 16592 16595     9 
16589 16592 16595 16596     9 
16589 16592 16595 16597     9 
16589 16592 16595 16598     9 
16593 16592 16595 16596     9 
16593 16592 16595 16597     9 
16593 16592 16595 16598     9 
16594 16592 16595 16596     9 
16594 16592 16595 16597     9 
16594 16592 16595 16598     9 
16592 16595 16598 16599     9 
16592 16595 16598 16600     9 
16592 16595 16598 16601     9 
16596 16595 16598 16599     9 
16596 16595 16598 16600     9 
16596 16595 16598 16601     9 
16597 16595 16598 16599     9 
16597 16595 16598 16600     9 
16597 16595 16598 16601     9 
16595 16598 16601 16602     9 
16595 16598 16601 16603     9 
16595 16598 16601 16604     9 
16599 16598 16601 16602     9 
16599 16598 16601 16603     9 
16599 16598 16601 16604     9 
16600 16598 16601 16602     9 
16600 16598 16601 16603     9 
16600 16598 16601 16604     9 
16598 16601 16604 16605     9 
16598 16601 16604 16606     9 
16598 16601 16604 16607     9 
16602 16601 16604 16605     9 
16602 16601 16604 16606     9 
16602 16601 16604 16607     9 
16603 16601 16604 16605     9 
16603 16601 16604 16606     9 
16603 16601 16604 16607     9 
16601 16604 16607 16608     9 
16601 16604 16607 16609     9 
16601 16604 16607 16610     9 
16605 16604 16607 16608     9 
16605 16604 16607 16609     9 
16605 16604 16607 16610     9 
16606 16604 16607 16608     9 
16606 16604 16607 16609     9 
16606 16604 16607 16610     9 
16604 16607 16610 16611     9 
16604 16607 16610 16612     9 
16604 16607 16610 16613     9 
16608 16607 16610 16611     9 
16608 16607 16610 16612     9 
16608 16607 16610 16613     9 
16609 16607 16610 16611     9 
16609 16607 16610 16612     9 
16609 16607 16610 16613     9 
16607 16610 16613 16614     9 
16607 16610 16613 16615     9 
16607 16610 16613 16616     9 
16611 16610 16613 16614     9 
16611 16610 16613 16615     9 
16611 16610 16613 16616     9 
16612 16610 16613 16614     9 
16612 16610 16613 16615     9 
16612 16610 16613 16616     9 
16621 16617 16618 16619     9 
16621 16617 16618 16620     9 
16621 16617 16618 16633     9 
16625 16617 16618 16619     9 
16625 16617 16618 16620     9 
16625 16617 16618 16633     9 
16629 16617 16618 16619     9 
16629 16617 16618 16620     9 
16629 16617 16618 16633     9 
16618 16617 16621 16622     9 
16618 16617 16621 16623     9 
16618 16617 16621 16624     9 
16625 16617 16621 16622     9 
16625 16617 16621 16623     9 
16625 16617 16621 16624     9 
16629 16617 16621 16622     9 
16629 16617 16621 16623     9 
16629 16617 16621 16624     9 
16618 16617 16625 16626     9 
16618 16617 16625 16627     9 
16618 16617 16625 16628     9 
16621 16617 16625 16626     9 
16621 16617 16625 16627     9 
16621 16617 16625 16628     9 
16629 16617 16625 16626     9 
16629 16617 16625 16627     9 
16629 16617 16625 16628     9 
16618 16617 16629 16630     9 
16618 16617 16629 16631     9 
16618 16617 16629 16632     9 
16621 16617 16629 16630     9 
16621 16617 16629 16631     9 
16621 16617 16629 16632     9 
16625 16617 16629 16630     9 
16625 16617 16629 16631     9 
16625 16617 16629 16632     9 
16617 16618 16633 16634     9 
16617 16618 16633 16635     9 
16617 16618 16633 16639     9 
16619 16618 16633 16634     9 
16619 16618 16633 16635     9 
16619 16618 16633 16639     9 
16620 16618 16633 16634     9 
16620 16618 16633 16635     9 
16620 16618 16633 16639     9 
16618 16633 16639 16636     9 
16634 16633 16639 16636     9 
16635 16633 16639 16636     9 
16637 16636 16639 16633     9 
16638 16636 16639 16633     9 
16640 16636 16639 16633     9 
16637 16636 16640 16641     9 
16638 16636 16640 16641     9 
16639 16636 16640 16641     9 
16636 16640 16641 16642     9 
16636 16640 16641 16643     9 
16636 16640 16641 16644     9 
16640 16641 16644 16645     9 
16640 16641 16644 16646     9 
16640 16641 16644 16652     9 
16642 16641 16644 16645     9 
16642 16641 16644 16646     9 
16642 16641 16644 16652     9 
16643 16641 16644 16645     9 
16643 16641 16644 16646     9 
16643 16641 16644 16652     9 
16641 16644 16646 16647     9 
16645 16644 16646 16647     9 
16652 16644 16646 16647     9 
16641 16644 16652 16653     9 
16641 16644 16652 16654     9 
16641 16644 16652 16655     9 
16645 16644 16652 16653     9 
16645 16644 16652 16654     9 
16645 16644 16652 16655     9 
16646 16644 16652 16653     9 
16646 16644 16652 16654     9 
16646 16644 16652 16655     9 
16644 16646 16647 16648     9 
16644 16646 16647 16649     9 
16646 16647 16649 16650     9 
16646 16647 16649 16651     9 
16646 16647 16649 16661     9 
16648 16647 16649 16650     9 
16648 16647 16649 16651     9 
16648 16647 16649 16661     9 
16647 16649 16661 16662     9 
16647 16649 16661 16663     9 
16647 16649 16661 16664     9 
16650 16649 16661 16662     9 
16650 16649 16661 16663     9 
16650 16649 16661 16664     9 
16651 16649 16661 16662     9 
16651 16649 16661 16663     9 
16651 16649 16661 16664     9 
16644 16652 16655 16656     9 
16653 16652 16655 16656     9 
16654 16652 16655 16656     9 
16652 16655 16656 16657     9 
16652 16655 16656 16658     9 
16655 16656 16658 16659     9 
16655 16656 16658 16660     9 
16655 16656 16658 16708     9 
16657 16656 16658 16659     9 
16657 16656 16658 16660     9 
16657 16656 16658 16708     9 
16656 16658 16708 16709     9 
16656 16658 16708 16710     9 
16656 16658 16708 16711     9 
16659 16658 16708 16709     9 
16659 16658 16708 16710     9 
16659 16658 16708 16711     9 
16660 16658 16708 16709     9 
16660 16658 16708 16710     9 
16660 16658 16708 16711     9 
16649 16661 16664 16665     9 
16649 16661 16664 16666     9 
16649 16661 16664 16667     9 
16662 16661 16664 16665     9 
16662 16661 16664 16666     9 
16662 16661 16664 16667     9 
16663 16661 16664 16665     9 
16663 16661 16664 16666     9 
16663 16661 16664 16667     9 
16661 16664 16667 16668     9 
16661 16664 16667 16669     9 
16661 16664 16667 16670     9 
16665 16664 16667 16668     9 
16665 16664 16667 16669     9 
16665 16664 16667 16670     9 
16666 16664 16667 16668     9 
16666 16664 16667 16669     9 
16666 16664 16667 16670     9 
16664 16667 16670 16671     9 
16664 16667 16670 16672     9 
16664 16667 16670 16673     9 
16668 16667 16670 16671     9 
16668 16667 16670 16672     9 
16668 16667 16670 16673     9 
16669 16667 16670 16671     9 
16669 16667 16670 16672     9 
16669 16667 16670 16673     9 
16667 16670 16673 16674     9 
16667 16670 16673 16675     9 
16667 16670 16673 16676     9 
16671 16670 16673 16674     9 
16671 16670 16673 16675     9 
16671 16670 16673 16676     9 
16672 16670 16673 16674     9 
16672 16670 16673 16675     9 
16672 16670 16673 16676     9 
16670 16673 16676 16677     9 
16670 16673 16676 16678     9 
16670 16673 16676 16679     9 
16674 16673 16676 16677     9 
16674 16673 16676 16678     9 
16674 16673 16676 16679     9 
16675 16673 16676 16677     9 
16675 16673 16676 16678     9 
16675 16673 16676 16679     9 
16673 16676 16679 16680     9 
16673 16676 16679 16681     9 
16677 16676 16679 16680     9 
16677 16676 16679 16681     9 
16678 16676 16679 16680     9 
16678 16676 16679 16681     9 
16676 16679 16681 16682     9 
16676 16679 16681 16683     9 
16680 16679 16681 16682     9 
16680 16679 16681 16683     9 
16679 16681 16683 16684     9 
16679 16681 16683 16685     9 
16679 16681 16683 16686     9 
16682 16681 16683 16684     9 
16682 16681 16683 16685     9 
16682 16681 16683 16686     9 
16681 16683 16686 16687     9 
16681 16683 16686 16688     9 
16681 16683 16686 16689     9 
16684 16683 16686 16687     9 
16684 16683 16686 16688     9 
16684 16683 16686 16689     9 
16685 16683 16686 16687     9 
16685 16683 16686 16688     9 
16685 16683 16686 16689     9 
16683 16686 16689 16690     9 
16683 16686 16689 16691     9 
16683 16686 16689 16692     9 
16687 16686 16689 16690     9 
16687 16686 16689 16691     9 
16687 16686 16689 16692     9 
16688 16686 16689 16690     9 
16688 16686 16689 16691     9 
16688 16686 16689 16692     9 
16686 16689 16692 16693     9 
16686 16689 16692 16694     9 
16686 16689 16692 16695     9 
16690 16689 16692 16693     9 
16690 16689 16692 16694     9 
16690 16689 16692 16695     9 
16691 16689 16692 16693     9 
16691 16689 16692 16694     9 
16691 16689 16692 16695     9 
16689 16692 16695 16696     9 
16689 16692 16695 16697     9 
16689 16692 16695 16698     9 
16693 16692 16695 16696     9 
16693 16692 16695 16697     9 
16693 16692 16695 16698     9 
16694 16692 16695 16696     9 
16694 16692 16695 16697     9 
16694 16692 16695 16698     9 
16692 16695 16698 16699     9 
16692 16695 16698 16700     9 
16692 16695 16698 16701     9 
16696 16695 16698 16699     9 
16696 16695 16698 16700     9 
16696 16695 16698 16701     9 
16697 16695 16698 16699     9 
16697 16695 16698 16700     9 
16697 16695 16698 16701     9 
16695 16698 16701 16702     9 
16695 16698 16701 16703     9 
16695 16698 16701 16704     9 
16699 16698 16701 16702     9 
16699 16698 16701 16703     9 
16699 16698 16701 16704     9 
16700 16698 16701 16702     9 
16700 16698 16701 16703     9 
16700 16698 16701 16704     9 
16698 16701 16704 16705     9 
16698 16701 16704 16706     9 
16698 16701 16704 16707     9 
16702 16701 16704 16705     9 
16702 16701 16704 16706     9 
16702 16701 16704 16707     9 
16703 16701 16704 16705     9 
16703 16701 16704 16706     9 
16703 16701 16704 16707     9 
16658 16708 16711 16712     9 
16658 16708 16711 16713     9 
16658 16708 16711 16714     9 
16709 16708 16711 16712     9 
16709 16708 16711 16713     9 
16709 16708 16711 16714     9 
16710 16708 16711 16712     9 
16710 16708 16711 16713     9 
16710 16708 16711 16714     9 
16708 16711 16714 16715     9 
16708 16711 16714 16716     9 
16708 16711 16714 16717     9 
16712 16711 16714 16715     9 
16712 16711 16714 16716     9 
16712 16711 16714 16717     9 
16713 16711 16714 16715     9 
16713 16711 16714 16716     9 
16713 16711 16714 16717     9 
16711 16714 16717 16718     9 
16711 16714 16717 16719     9 
16711 16714 16717 16720     9 
16715 16714 16717 16718     9 
16715 16714 16717 16719     9 
16715 16714 16717 16720     9 
16716 16714 16717 16718     9 
16716 16714 16717 16719     9 
16716 16714 16717 16720     9 
16714 16717 16720 16721     9 
16714 16717 16720 16722     9 
16714 16717 16720 16723     9 
16718 16717 16720 16721     9 
16718 16717 16720 16722     9 
16718 16717 16720 16723     9 
16719 16717 16720 16721     9 
16719 16717 16720 16722     9 
16719 16717 16720 16723     9 
16717 16720 16723 16724     9 
16717 16720 16723 16725     9 
16717 16720 16723 16726     9 
16721 16720 16723 16724     9 
16721 16720 16723 16725     9 
16721 16720 16723 16726     9 
16722 16720 16723 16724     9 
16722 16720 16723 16725     9 
16722 16720 16723 16726     9 
16720 16723 16726 16727     9 
16720 16723 16726 16728     9 
16720 16723 16726 16729     9 
16724 16723 16726 16727     9 
16724 16723 16726 16728     9 
16724 16723 16726 16729     9 
16725 16723 16726 16727     9 
16725 16723 16726 16728     9 
16725 16723 16726 16729     9 
16723 16726 16729 16730     9 
16723 16726 16729 16731     9 
16723 16726 16729 16732     9 
16727 16726 16729 16730     9 
16727 16726 16729 16731     9 
16727 16726 16729 16732     9 
16728 16726 16729 16730     9 
16728 16726 16729 16731     9 
16728 16726 16729 16732     9 
16726 16729 16732 16733     9 
16726 16729 16732 16734     9 
16726 16729 16732 16735     9 
16730 16729 16732 16733     9 
16730 16729 16732 16734     9 
16730 16729 16732 16735     9 
16731 16729 16732 16733     9 
16731 16729 16732 16734     9 
16731 16729 16732 16735     9 
16729 16732 16735 16736     9 
16729 16732 16735 16737     9 
16729 16732 16735 16738     9 
16733 16732 16735 16736     9 
16733 16732 16735 16737     9 
16733 16732 16735 16738     9 
16734 16732 16735 16736     9 
16734 16732 16735 16737     9 
16734 16732 16735 16738     9 
16732 16735 16738 16739     9 
16732 16735 16738 16740     9 
16732 16735 16738 16741     9 
16736 16735 16738 16739     9 
16736 16735 16738 16740     9 
16736 16735 16738 16741     9 
16737 16735 16738 16739     9 
16737 16735 16738 16740     9 
16737 16735 16738 16741     9 
16735 16738 16741 16742     9 
16735 16738 16741 16743     9 
16735 16738 16741 16744     9 
16739 16738 16741 16742     9 
16739 16738 16741 16743     9 
16739 16738 16741 16744     9 
16740 16738 16741 16742     9 
16740 16738 16741 16743     9 
16740 16738 16741 16744     9 
16738 16741 16744 16745     9 
16738 16741 16744 16746     9 
16738 16741 16744 16747     9 
16742 16741 16744 16745     9 
16742 16741 16744 16746     9 
16742 16741 16744 16747     9 
16743 16741 16744 16745     9 
16743 16741 16744 16746     9 
16743 16741 16744 16747     9 
16741 16744 16747 16748     9 
16741 16744 16747 16749     9 
16741 16744 16747 16750     9 
16745 16744 16747 16748     9 
16745 16744 16747 16749     9 
16745 16744 16747 16750     9 
16746 16744 16747 16748     9 
16746 16744 16747 16749     9 
16746 16744 16747 16750     9 
16755 16751 16752 16753     9 
16755 16751 16752 16754     9 
16755 16751 16752 16767     9 
16759 16751 16752 16753     9 
16759 16751 16752 16754     9 
16759 16751 16752 16767     9 
16763 16751 16752 16753     9 
16763 16751 16752 16754     9 
16763 16751 16752 16767     9 
16752 16751 16755 16756     9 
16752 16751 16755 16757     9 
16752 16751 16755 16758     9 
16759 16751 16755 16756     9 
16759 16751 16755 16757     9 
16759 16751 16755 16758     9 
16763 16751 16755 16756     9 
16763 16751 16755 16757     9 
16763 16751 16755 16758     9 
16752 16751 16759 16760     9 
16752 16751 16759 16761     9 
16752 16751 16759 16762     9 
16755 16751 16759 16760     9 
16755 16751 16759 16761     9 
16755 16751 16759 16762     9 
16763 16751 16759 16760     9 
16763 16751 16759 16761     9 
16763 16751 16759 16762     9 
16752 16751 16763 16764     9 
16752 16751 16763 16765     9 
16752 16751 16763 16766     9 
16755 16751 16763 16764     9 
16755 16751 16763 16765     9 
16755 16751 16763 16766     9 
16759 16751 16763 16764     9 
16759 16751 16763 16765     9 
16759 16751 16763 16766     9 
16751 16752 16767 16768     9 
16751 16752 16767 16769     9 
16751 16752 16767 16773     9 
16753 16752 16767 16768     9 
16753 16752 16767 16769     9 
16753 16752 16767 16773     9 
16754 16752 16767 16768     9 
16754 16752 16767 16769     9 
16754 16752 16767 16773     9 
16752 16767 16773 16770     9 
16768 16767 16773 16770     9 
16769 16767 16773 16770     9 
16771 16770 16773 16767     9 
16772 16770 16773 16767     9 
16774 16770 16773 16767     9 
16771 16770 16774 16775     9 
16772 16770 16774 16775     9 
16773 16770 16774 16775     9 
16770 16774 16775 16776     9 
16770 16774 16775 16777     9 
16770 16774 16775 16778     9 
16774 16775 16778 16779     9 
16774 16775 16778 16780     9 
16774 16775 16778 16786     9 
16776 16775 16778 16779     9 
16776 16775 16778 16780     9 
16776 16775 16778 16786     9 
16777 16775 16778 16779     9 
16777 16775 16778 16780     9 
16777 16775 16778 16786     9 
16775 16778 16780 16781     9 
16779 16778 16780 16781     9 
16786 16778 16780 16781     9 
16775 16778 16786 16787     9 
16775 16778 16786 16788     9 
16775 16778 16786 16789     9 
16779 16778 16786 16787     9 
16779 16778 16786 16788     9 
16779 16778 16786 16789     9 
16780 16778 16786 16787     9 
16780 16778 16786 16788     9 
16780 16778 16786 16789     9 
16778 16780 16781 16782     9 
16778 16780 16781 16783     9 
16780 16781 16783 16784     9 
16780 16781 16783 16785     9 
16780 16781 16783 16795     9 
16782 16781 16783 16784     9 
16782 16781 16783 16785     9 
16782 16781 16783 16795     9 
16781 16783 16795 16796     9 
16781 16783 16795 16797     9 
16781 16783 16795 16798     9 
16784 16783 16795 16796     9 
16784 16783 16795 16797     9 
16784 16783 16795 16798     9 
16785 16783 16795 16796     9 
16785 16783 16795 16797     9 
16785 16783 16795 16798     9 
16778 16786 16789 16790     9 
16787 16786 16789 16790     9 
16788 16786 16789 16790     9 
16786 16789 16790 16791     9 
16786 16789 16790 16792     9 
16789 16790 16792 16793     9 
16789 16790 16792 16794     9 
16789 16790 16792 16842     9 
16791 16790 16792 16793     9 
16791 16790 16792 16794     9 
16791 16790 16792 16842     9 
16790 16792 16842 16843     9 
16790 16792 16842 16844     9 
16790 16792 16842 16845     9 
16793 16792 16842 16843     9 
16793 16792 16842 16844     9 
16793 16792 16842 16845     9 
16794 16792 16842 16843     9 
16794 16792 16842 16844     9 
16794 16792 16842 16845     9 
16783 16795 16798 16799     9 
16783 16795 16798 16800     9 
16783 16795 16798 16801     9 
16796 16795 16798 16799     9 
16796 16795 16798 16800     9 
16796 16795 16798 16801     9 
16797 16795 16798 16799     9 
16797 16795 16798 16800     9 
16797 16795 16798 16801     9 
16795 16798 16801 16802     9 
16795 16798 16801 16803     9 
16795 16798 16801 16804     9 
16799 16798 16801 16802     9 
16799 16798 16801 16803     9 
16799 16798 16801 16804     9 
16800 16798 16801 16802     9 
16800 16798 16801 16803     9 
16800 16798 16801 16804     9 
16798 16801 16804 16805     9 
16798 16801 16804 16806     9 
16798 16801 16804 16807     9 
16802 16801 16804 16805     9 
16802 16801 16804 16806     9 
16802 16801 16804 16807     9 
16803 16801 16804 16805     9 
16803 16801 16804 16806     9 
16803 16801 16804 16807     9 
16801 16804 16807 16808     9 
16801 16804 16807 16809     9 
16801 16804 16807 16810     9 
16805 16804 16807 16808     9 
16805 16804 16807 16809     9 
16805 16804 16807 16810     9 
16806 16804 16807 16808     9 
16806 16804 16807 16809     9 
16806 16804 16807 16810     9 
16804 16807 16810 16811     9 
16804 16807 16810 16812     9 
16804 16807 16810 16813     9 
16808 16807 16810 16811     9 
16808 16807 16810 16812     9 
16808 16807 16810 16813     9 
16809 16807 16810 16811     9 
16809 16807 16810 16812     9 
16809 16807 16810 16813     9 
16807 16810 16813 16814     9 
16807 16810 16813 16815     9 
16811 16810 16813 16814     9 
16811 16810 16813 16815     9 
16812 16810 16813 16814     9 
16812 16810 16813 16815     9 
16810 16813 16815 16816     9 
16810 16813 16815 16817     9 
16814 16813 16815 16816     9 
16814 16813 16815 16817     9 
16813 16815 16817 16818     9 
16813 16815 16817 16819     9 
16813 16815 16817 16820     9 
16816 16815 16817 16818     9 
16816 16815 16817 16819     9 
16816 16815 16817 16820     9 
16815 16817 16820 16821     9 
16815 16817 16820 16822     9 
16815 16817 16820 16823     9 
16818 16817 16820 16821     9 
16818 16817 16820 16822     9 
16818 16817 16820 16823     9 
16819 16817 16820 16821     9 
16819 16817 16820 16822     9 
16819 16817 16820 16823     9 
16817 16820 16823 16824     9 
16817 16820 16823 16825     9 
16817 16820 16823 16826     9 
16821 16820 16823 16824     9 
16821 16820 16823 16825     9 
16821 16820 16823 16826     9 
16822 16820 16823 16824     9 
16822 16820 16823 16825     9 
16822 16820 16823 16826     9 
16820 16823 16826 16827     9 
16820 16823 16826 16828     9 
16820 16823 16826 16829     9 
16824 16823 16826 16827     9 
16824 16823 16826 16828     9 
16824 16823 16826 16829     9 
16825 16823 16826 16827     9 
16825 16823 16826 16828     9 
16825 16823 16826 16829     9 
16823 16826 16829 16830     9 
16823 16826 16829 16831     9 
16823 16826 16829 16832     9 
16827 16826 16829 16830     9 
16827 16826 16829 16831     9 
16827 16826 16829 16832     9 
16828 16826 16829 16830     9 
16828 16826 16829 16831     9 
16828 16826 16829 16832     9 
16826 16829 16832 16833     9 
16826 16829 16832 16834     9 
16826 16829 16832 16835     9 
16830 16829 16832 16833     9 
16830 16829 16832 16834     9 
16830 16829 16832 16835     9 
16831 16829 16832 16833     9 
16831 16829 16832 16834     9 
16831 16829 16832 16835     9 
16829 16832 16835 16836     9 
16829 16832 16835 16837     9 
16829 16832 16835 16838     9 
16833 16832 16835 16836     9 
16833 16832 16835 16837     9 
16833 16832 16835 16838     9 
16834 16832 16835 16836     9 
16834 16832 16835 16837     9 
16834 16832 16835 16838     9 
16832 16835 16838 16839     9 
16832 16835 16838 16840     9 
16832 16835 16838 16841     9 
16836 16835 16838 16839     9 
16836 16835 16838 16840     9 
16836 16835 16838 16841     9 
16837 16835 16838 16839     9 
16837 16835 16838 16840     9 
16837 16835 16838 16841     9 
16792 16842 16845 16846     9 
16792 16842 16845 16847     9 
16792 16842 16845 16848     9 
16843 16842 16845 16846     9 
16843 16842 16845 16847     9 
16843 16842 16845 16848     9 
16844 16842 16845 16846     9 
16844 16842 16845 16847     9 
16844 16842 16845 16848     9 
16842 16845 16848 16849     9 
16842 16845 16848 16850     9 
16842 16845 16848 16851     9 
16846 16845 16848 16849     9 
16846 16845 16848 16850     9 
16846 16845 16848 16851     9 
16847 16845 16848 16849     9 
16847 16845 16848 16850     9 
16847 16845 16848 16851     9 
16845 16848 16851 16852     9 
16845 16848 16851 16853     9 
16845 16848 16851 16854     9 
16849 16848 16851 16852     9 
16849 16848 16851 16853     9 
16849 16848 16851 16854     9 
16850 16848 16851 16852     9 
16850 16848 16851 16853     9 
16850 16848 16851 16854     9 
16848 16851 16854 16855     9 
16848 16851 16854 16856     9 
16848 16851 16854 16857     9 
16852 16851 16854 16855     9 
16852 16851 16854 16856     9 
16852 16851 16854 16857     9 
16853 16851 16854 16855     9 
16853 16851 16854 16856     9 
16853 16851 16854 16857     9 
16851 16854 16857 16858     9 
16851 16854 16857 16859     9 
16851 16854 16857 16860     9 
16855 16854 16857 16858     9 
16855 16854 16857 16859     9 
16855 16854 16857 16860     9 
16856 16854 16857 16858     9 
16856 16854 16857 16859     9 
16856 16854 16857 16860     9 
16854 16857 16860 16861     9 
16854 16857 16860 16862     9 
16854 16857 16860 16863     9 
16858 16857 16860 16861     9 
16858 16857 16860 16862     9 
16858 16857 16860 16863     9 
16859 16857 16860 16861     9 
16859 16857 16860 16862     9 
16859 16857 16860 16863     9 
16857 16860 16863 16864     9 
16857 16860 16863 16865     9 
16857 16860 16863 16866     9 
16861 16860 16863 16864     9 
16861 16860 16863 16865     9 
16861 16860 16863 16866     9 
16862 16860 16863 16864     9 
16862 16860 16863 16865     9 
16862 16860 16863 16866     9 
16860 16863 16866 16867     9 
16860 16863 16866 16868     9 
16860 16863 16866 16869     9 
16864 16863 16866 16867     9 
16864 16863 16866 16868     9 
16864 16863 16866 16869     9 
16865 16863 16866 16867     9 
16865 16863 16866 16868     9 
16865 16863 16866 16869     9 
16863 16866 16869 16870     9 
16863 16866 16869 16871     9 
16863 16866 16869 16872     9 
16867 16866 16869 16870     9 
16867 16866 16869 16871     9 
16867 16866 16869 16872     9 
16868 16866 16869 16870     9 
16868 16866 16869 16871     9 
16868 16866 16869 16872     9 
16866 16869 16872 16873     9 
16866 16869 16872 16874     9 
16866 16869 16872 16875     9 
16870 16869 16872 16873     9 
16870 16869 16872 16874     9 
16870 16869 16872 16875     9 
16871 16869 16872 16873     9 
16871 16869 16872 16874     9 
16871 16869 16872 16875     9 
16869 16872 16875 16876     9 
16869 16872 16875 16877     9 
16869 16872 16875 16878     9 
16873 16872 16875 16876     9 
16873 16872 16875 16877     9 
16873 16872 16875 16878     9 
16874 16872 16875 16876     9 
16874 16872 16875 16877     9 
16874 16872 16875 16878     9 
16872 16875 16878 16879     9 
16872 16875 16878 16880     9 
16872 16875 16878 16881     9 
16876 16875 16878 16879     9 
16876 16875 16878 16880     9 
16876 16875 16878 16881     9 
16877 16875 16878 16879     9 
16877 16875 16878 16880     9 
16877 16875 16878 16881     9 
16875 16878 16881 16882     9 
16875 16878 16881 16883     9 
16875 16878 16881 16884     9 
16879 16878 16881 16882     9 
16879 16878 16881 16883     9 
16879 16878 16881 16884     9 
16880 16878 16881 16882     9 
16880 16878 16881 16883     9 
16880 16878 16881 16884     9 
16889 16885 16886 16887     9 
16889 16885 16886 16888     9 
16889 16885 16886 16901     9 
16893 16885 16886 16887     9 
16893 16885 16886 16888     9 
16893 16885 16886 16901     9 
16897 16885 16886 16887     9 
16897 16885 16886 16888     9 
16897 16885 16886 16901     9 
16886 16885 16889 16890     9 
16886 16885 16889 16891     9 
16886 16885 16889 16892     9 
16893 16885 16889 16890     9 
16893 16885 16889 16891     9 
16893 16885 16889 16892     9 
16897 16885 16889 16890     9 
16897 16885 16889 16891     9 
16897 16885 16889 16892     9 
16886 16885 16893 16894     9 
16886 16885 16893 16895     9 
16886 16885 16893 16896     9 
16889 16885 16893 16894     9 
16889 16885 16893 16895     9 
16889 16885 16893 16896     9 
16897 16885 16893 16894     9 
16897 16885 16893 16895     9 
16897 16885 16893 16896     9 
16886 16885 16897 16898     9 
16886 16885 16897 16899     9 
16886 16885 16897 16900     9 
16889 16885 16897 16898     9 
16889 16885 16897 16899     9 
16889 16885 16897 16900     9 
16893 16885 16897 16898     9 
16893 16885 16897 16899     9 
16893 16885 16897 16900     9 
16885 16886 16901 16902     9 
16885 16886 16901 16903     9 
16885 16886 16901 16907     9 
16887 16886 16901 16902     9 
16887 16886 16901 16903     9 
16887 16886 16901 16907     9 
16888 16886 16901 16902     9 
16888 16886 16901 16903     9 
16888 16886 16901 16907     9 
16886 16901 16907 16904     9 
16902 16901 16907 16904     9 
16903 16901 16907 16904     9 
16905 16904 16907 16901     9 
16906 16904 16907 16901     9 
16908 16904 16907 16901     9 
16905 16904 16908 16909     9 
16906 16904 16908 16909     9 
16907 16904 16908 16909     9 
16904 16908 16909 16910     9 
16904 16908 16909 16911     9 
16904 16908 16909 16912     9 
16908 16909 16912 16913     9 
16908 16909 16912 16914     9 
16908 16909 16912 16920     9 
16910 16909 16912 16913     9 
16910 16909 16912 16914     9 
16910 16909 16912 16920     9 
16911 16909 16912 16913     9 
16911 16909 16912 16914     9 
16911 16909 16912 16920     9 
16909 16912 16914 16915     9 
16913 16912 16914 16915     9 
16920 16912 16914 16915     9 
16909 16912 16920 16921     9 
16909 16912 16920 16922     9 
16909 16912 16920 16923     9 
16913 16912 16920 16921     9 
16913 16912 16920 16922     9 
16913 16912 16920 16923     9 
16914 16912 16920 16921     9 
16914 16912 16920 16922     9 
16914 16912 16920 16923     9 
16912 16914 16915 16916     9 
16912 16914 16915 16917     9 
16914 16915 16917 16918     9 
16914 16915 16917 16919     9 
16914 16915 16917 16929     9 
16916 16915 16917 16918     9 
16916 16915 16917 16919     9 
16916 16915 16917 16929     9 
16915 16917 16929 16930     9 
16915 16917 16929 16931     9 
16915 16917 16929 16932     9 
16918 16917 16929 16930     9 
16918 16917 16929 16931     9 
16918 16917 16929 16932     9 
16919 16917 16929 16930     9 
16919 16917 16929 16931     9 
16919 16917 16929 16932     9 
16912 16920 16923 16924     9 
16921 16920 16923 16924     9 
16922 16920 16923 16924     9 
16920 16923 16924 16925     9 
16920 16923 16924 16926     9 
16923 16924 16926 16927     9 
16923 16924 16926 16928     9 
16923 16924 16926 16976     9 
16925 16924 16926 16927     9 
16925 16924 16926 16928     9 
16925 16924 16926 16976     9 
16924 16926 16976 16977     9 
16924 16926 16976 16978     9 
16924 16926 16976 16979     9 
16927 16926 16976 16977     9 
16927 16926 16976 16978     9 
16927 16926 16976 16979     9 
16928 16926 16976 16977     9 
16928 16926 16976 16978     9 
16928 16926 16976 16979     9 
16917 16929 16932 16933     9 
16917 16929 16932 16934     9 
16917 16929 16932 16935     9 
16930 16929 16932 16933     9 
16930 16929 16932 16934     9 
16930 16929 16932 16935     9 
16931 16929 16932 16933     9 
16931 16929 16932 16934     9 
16931 16929 16932 16935     9 
16929 16932 16935 16936     9 
16929 16932 16935 16937     9 
16929 16932 16935 16938     9 
16933 16932 16935 16936     9 
16933 16932 16935 16937     9 
16933 16932 16935 16938     9 
16934 16932 16935 16936     9 
16934 16932 16935 16937     9 
16934 16932 16935 16938     9 
16932 16935 16938 16939     9 
16932 16935 16938 16940     9 
16932 16935 16938 16941     9 
16936 16935 16938 16939     9 
16936 16935 16938 16940     9 
16936 16935 16938 16941     9 
16937 16935 16938 16939     9 
16937 16935 16938 16940     9 
16937 16935 16938 16941     9 
16935 16938 16941 16942     9 
16935 16938 16941 16943     9 
16935 16938 16941 16944     9 
16939 16938 16941 16942     9 
16939 16938 16941 16943     9 
16939 16938 16941 16944     9 
16940 16938 16941 16942     9 
16940 16938 16941 16943     9 
16940 16938 16941 16944     9 
16938 16941 16944 16945     9 
16938 16941 16944 16946     9 
16938 16941 16944 16947     9 
16942 16941 16944 16945     9 
16942 16941 16944 16946     9 
16942 16941 16944 16947     9 
16943 16941 16944 16945     9 
16943 16941 16944 16946     9 
16943 16941 16944 16947     9 
16941 16944 16947 16948     9 
16941 16944 16947 16949     9 
16945 16944 16947 16948     9 
16945 16944 16947 16949     9 
16946 16944 16947 16948     9 
16946 16944 16947 16949     9 
16944 16947 16949 16950     9 
16944 16947 16949 16951     9 
16948 16947 16949 16950     9 
16948 16947 16949 16951     9 
16947 16949 16951 16952     9 
16947 16949 16951 16953     9 
16947 16949 16951 16954     9 
16950 16949 16951 16952     9 
16950 16949 16951 16953     9 
16950 16949 16951 16954     9 
16949 16951 16954 16955     9 
16949 16951 16954 16956     9 
16949 16951 16954 16957     9 
16952 16951 16954 16955     9 
16952 16951 16954 16956     9 
16952 16951 16954 16957     9 
16953 16951 16954 16955     9 
16953 16951 16954 16956     9 
16953 16951 16954 16957     9 
16951 16954 16957 16958     9 
16951 16954 16957 16959     9 
16951 16954 16957 16960     9 
16955 16954 16957 16958     9 
16955 16954 16957 16959     9 
16955 16954 16957 16960     9 
16956 16954 16957 16958     9 
16956 16954 16957 16959     9 
16956 16954 16957 16960     9 
16954 16957 16960 16961     9 
16954 16957 16960 16962     9 
16954 16957 16960 16963     9 
16958 16957 16960 16961     9 
16958 16957 16960 16962     9 
16958 16957 16960 16963     9 
16959 16957 16960 16961     9 
16959 16957 16960 16962     9 
16959 16957 16960 16963     9 
16957 16960 16963 16964     9 
16957 16960 16963 16965     9 
16957 16960 16963 16966     9 
16961 16960 16963 16964     9 
16961 16960 16963 16965     9 
16961 16960 16963 16966     9 
16962 16960 16963 16964     9 
16962 16960 16963 16965     9 
16962 16960 16963 16966     9 
16960 16963 16966 16967     9 
16960 16963 16966 16968     9 
16960 16963 16966 16969     9 
16964 16963 16966 16967     9 
16964 16963 16966 16968     9 
16964 16963 16966 16969     9 
16965 16963 16966 16967     9 
16965 16963 16966 16968     9 
16965 16963 16966 16969     9 
16963 16966 16969 16970     9 
16963 16966 16969 16971     9 
16963 16966 16969 16972     9 
16967 16966 16969 16970     9 
16967 16966 16969 16971     9 
16967 16966 16969 16972     9 
16968 16966 16969 16970     9 
16968 16966 16969 16971     9 
16968 16966 16969 16972     9 
16966 16969 16972 16973     9 
16966 16969 16972 16974     9 
16966 16969 16972 16975     9 
16970 16969 16972 16973     9 
16970 16969 16972 16974     9 
16970 16969 16972 16975     9 
16971 16969 16972 16973     9 
16971 16969 16972 16974     9 
16971 16969 16972 16975     9 
16926 16976 16979 16980     9 
16926 16976 16979 16981     9 
16926 16976 16979 16982     9 
16977 16976 16979 16980     9 
16977 16976 16979 16981     9 
16977 16976 16979 16982     9 
16978 16976 16979 16980     9 
16978 16976 16979 16981     9 
16978 16976 16979 16982     9 
16976 16979 16982 16983     9 
16976 16979 16982 16984     9 
16976 16979 16982 16985     9 
16980 16979 16982 16983     9 
16980 16979 16982 16984     9 
16980 16979 16982 16985     9 
16981 16979 16982 16983     9 
16981 16979 16982 16984     9 
16981 16979 16982 16985     9 
16979 16982 16985 16986     9 
16979 16982 16985 16987     9 
16979 16982 16985 16988     9 
16983 16982 16985 16986     9 
16983 16982 16985 16987     9 
16983 16982 16985 16988     9 
16984 16982 16985 16986     9 
16984 16982 16985 16987     9 
16984 16982 16985 16988     9 
16982 16985 16988 16989     9 
16982 16985 16988 16990     9 
16982 16985 16988 16991     9 
16986 16985 16988 16989     9 
16986 16985 16988 16990     9 
16986 16985 16988 16991     9 
16987 16985 16988 16989     9 
16987 16985 16988 16990     9 
16987 16985 16988 16991     9 
16985 16988 16991 16992     9 
16985 16988 16991 16993     9 
16985 16988 16991 16994     9 
16989 16988 16991 16992     9 
16989 16988 16991 16993     9 
16989 16988 16991 16994     9 
16990 16988 16991 16992     9 
16990 16988 16991 16993     9 
16990 16988 16991 16994     9 
16988 16991 16994 16995     9 
16988 16991 16994 16996     9 
16988 16991 16994 16997     9 
16992 16991 16994 16995     9 
16992 16991 16994 16996     9 
16992 16991 16994 16997     9 
16993 16991 16994 16995     9 
16993 16991 16994 16996     9 
16993 16991 16994 16997     9 
16991 16994 16997 16998     9 
16991 16994 16997 16999     9 
16991 16994 16997 17000     9 
16995 16994 16997 16998     9 
16995 16994 16997 16999     9 
16995 16994 16997 17000     9 
16996 16994 16997 16998     9 
16996 16994 16997 16999     9 
16996 16994 16997 17000     9 
16994 16997 17000 17001     9 
16994 16997 17000 17002     9 
16994 16997 17000 17003     9 
16998 16997 17000 17001     9 
16998 16997 17000 17002     9 
16998 16997 17000 17003     9 
16999 16997 17000 17001     9 
16999 16997 17000 17002     9 
16999 16997 17000 17003     9 
16997 17000 17003 17004     9 
16997 17000 17003 17005     9 
16997 17000 17003 17006     9 
17001 17000 17003 17004     9 
17001 17000 17003 17005     9 
17001 17000 17003 17006     9 
17002 17000 17003 17004     9 
17002 17000 17003 17005     9 
17002 17000 17003 17006     9 
17000 17003 17006 17007     9 
17000 17003 17006 17008     9 
17000 17003 17006 17009     9 
17004 17003 17006 17007     9 
17004 17003 17006 17008     9 
17004 17003 17006 17009     9 
17005 17003 17006 17007     9 
17005 17003 17006 17008     9 
17005 17003 17006 17009     9 
17003 17006 17009 17010     9 
17003 17006 17009 17011     9 
17003 17006 17009 17012     9 
17007 17006 17009 17010     9 
17007 17006 17009 17011     9 
17007 17006 17009 17012     9 
17008 17006 17009 17010     9 
17008 17006 17009 17011     9 
17008 17006 17009 17012     9 
17006 17009 17012 17013     9 
17006 17009 17012 17014     9 
17006 17009 17012 17015     9 
17010 17009 17012 17013     9 
17010 17009 17012 17014     9 
17010 17009 17012 17015     9 
17011 17009 17012 17013     9 
17011 17009 17012 17014     9 
17011 17009 17012 17015     9 
17009 17012 17015 17016     9 
17009 17012 17015 17017     9 
17009 17012 17015 17018     9 
17013 17012 17015 17016     9 
17013 17012 17015 17017     9 
17013 17012 17015 17018     9 
17014 17012 17015 17016     9 
17014 17012 17015 17017     9 
17014 17012 17015 17018     9 
17023 17019 17020 17021     9 
17023 17019 17020 17022     9 
17023 17019 17020 17035     9 
17027 17019 17020 17021     9 
17027 17019 17020 17022     9 
17027 17019 17020 17035     9 
17031 17019 17020 17021     9 
17031 17019 17020 17022     9 
17031 17019 17020 17035     9 
17020 17019 17023 17024     9 
17020 17019 17023 17025     9 
17020 17019 17023 17026     9 
17027 17019 17023 17024     9 
17027 17019 17023 17025     9 
17027 17019 17023 17026     9 
17031 17019 17023 17024     9 
17031 17019 17023 17025     9 
17031 17019 17023 17026     9 
17020 17019 17027 17028     9 
17020 17019 17027 17029     9 
17020 17019 17027 17030     9 
17023 17019 17027 17028     9 
17023 17019 17027 17029     9 
17023 17019 17027 17030     9 
17031 17019 17027 17028     9 
17031 17019 17027 17029     9 
17031 17019 17027 17030     9 
17020 17019 17031 17032     9 
17020 17019 17031 17033     9 
17020 17019 17031 17034     9 
17023 17019 17031 17032     9 
17023 17019 17031 17033     9 
17023 17019 17031 17034     9 
17027 17019 17031 17032     9 
17027 17019 17031 17033     9 
17027 17019 17031 17034     9 
17019 17020 17035 17036     9 
17019 17020 17035 17037     9 
17019 17020 17035 17041     9 
17021 17020 17035 17036     9 
17021 17020 17035 17037     9 
17021 17020 17035 17041     9 
17022 17020 17035 17036     9 
17022 17020 17035 17037     9 
17022 17020 17035 17041     9 
17020 17035 17041 17038     9 
17036 17035 17041 17038     9 
17037 17035 17041 17038     9 
17039 17038 17041 17035     9 
17040 17038 17041 17035     9 
17042 17038 17041 17035     9 
17039 17038 17042 17043     9 
17040 17038 17042 17043     9 
17041 17038 17042 17043     9 
17038 17042 17043 17044     9 
17038 17042 17043 17045     9 
17038 17042 17043 17046     9 
17042 17043 17046 17047     9 
17042 17043 17046 17048     9 
17042 17043 17046 17054     9 
17044 17043 17046 17047     9 
17044 17043 17046 17048     9 
17044 17043 17046 17054     9 
17045 17043 17046 17047     9 
17045 17043 17046 17048     9 
17045 17043 17046 17054     9 
17043 17046 17048 17049     9 
17047 17046 17048 17049     9 
17054 17046 17048 17049     9 
17043 17046 17054 17055     9 
17043 17046 17054 17056     9 
17043 17046 17054 17057     9 
17047 17046 17054 17055     9 
17047 17046 17054 17056     9 
17047 17046 17054 17057     9 
17048 17046 17054 17055     9 
17048 17046 17054 17056     9 
17048 17046 17054 17057     9 
17046 17048 17049 17050     9 
17046 17048 17049 17051     9 
17048 17049 17051 17052     9 
17048 17049 17051 17053     9 
17048 17049 17051 17063     9 
17050 17049 17051 17052     9 
17050 17049 17051 17053     9 
17050 17049 17051 17063     9 
17049 17051 17063 17064     9 
17049 17051 17063 17065     9 
17049 17051 17063 17066     9 
17052 17051 17063 17064     9 
17052 17051 17063 17065     9 
17052 17051 17063 17066     9 
17053 17051 17063 17064     9 
17053 17051 17063 17065     9 
17053 17051 17063 17066     9 
17046 17054 17057 17058     9 
17055 17054 17057 17058     9 
17056 17054 17057 17058     9 
17054 17057 17058 17059     9 
17054 17057 17058 17060     9 
17057 17058 17060 17061     9 
17057 17058 17060 17062     9 
17057 17058 17060 17110     9 
17059 17058 17060 17061     9 
17059 17058 17060 17062     9 
17059 17058 17060 17110     9 
17058 17060 17110 17111     9 
17058 17060 17110 17112     9 
17058 17060 17110 17113     9 
17061 17060 17110 17111     9 
17061 17060 17110 17112     9 
17061 17060 17110 17113     9 
17062 17060 17110 17111     9 
17062 17060 17110 17112     9 
17062 17060 17110 17113     9 
17051 17063 17066 17067     9 
17051 17063 17066 17068     9 
17051 17063 17066 17069     9 
17064 17063 17066 17067     9 
17064 17063 17066 17068     9 
17064 17063 17066 17069     9 
17065 17063 17066 17067     9 
17065 17063 17066 17068     9 
17065 17063 17066 17069     9 
17063 17066 17069 17070     9 
17063 17066 17069 17071     9 
17063 17066 17069 17072     9 
17067 17066 17069 17070     9 
17067 17066 17069 17071     9 
17067 17066 17069 17072     9 
17068 17066 17069 17070     9 
17068 17066 17069 17071     9 
17068 17066 17069 17072     9 
17066 17069 17072 17073     9 
17066 17069 17072 17074     9 
17066 17069 17072 17075     9 
17070 17069 17072 17073     9 
17070 17069 17072 17074     9 
17070 17069 17072 17075     9 
17071 17069 17072 17073     9 
17071 17069 17072 17074     9 
17071 17069 17072 17075     9 
17069 17072 17075 17076     9 
17069 17072 17075 17077     9 
17069 17072 17075 17078     9 
17073 17072 17075 17076     9 
17073 17072 17075 17077     9 
17073 17072 17075 17078     9 
17074 17072 17075 17076     9 
17074 17072 17075 17077     9 
17074 17072 17075 17078     9 
17072 17075 17078 17079     9 
17072 17075 17078 17080     9 
17072 17075 17078 17081     9 
17076 17075 17078 17079     9 
17076 17075 17078 17080     9 
17076 17075 17078 17081     9 
17077 17075 17078 17079     9 
17077 17075 17078 17080     9 
17077 17075 17078 17081     9 
17075 17078 17081 17082     9 
17075 17078 17081 17083     9 
17079 17078 17081 17082     9 
17079 17078 17081 17083     9 
17080 17078 17081 17082     9 
17080 17078 17081 17083     9 
17078 17081 17083 17084     9 
17078 17081 17083 17085     9 
17082 17081 17083 17084     9 
17082 17081 17083 17085     9 
17081 17083 17085 17086     9 
17081 17083 17085 17087     9 
17081 17083 17085 17088     9 
17084 17083 17085 17086     9 
17084 17083 17085 17087     9 
17084 17083 17085 17088     9 
17083 17085 17088 17089     9 
17083 17085 17088 17090     9 
17083 17085 17088 17091     9 
17086 17085 17088 17089     9 
17086 17085 17088 17090     9 
17086 17085 17088 17091     9 
17087 17085 17088 17089     9 
17087 17085 17088 17090     9 
17087 17085 17088 17091     9 
17085 17088 17091 17092     9 
17085 17088 17091 17093     9 
17085 17088 17091 17094     9 
17089 17088 17091 17092     9 
17089 17088 17091 17093     9 
17089 17088 17091 17094     9 
17090 17088 17091 17092     9 
17090 17088 17091 17093     9 
17090 17088 17091 17094     9 
17088 17091 17094 17095     9 
17088 17091 17094 17096     9 
17088 17091 17094 17097     9 
17092 17091 17094 17095     9 
17092 17091 17094 17096     9 
17092 17091 17094 17097     9 
17093 17091 17094 17095     9 
17093 17091 17094 17096     9 
17093 17091 17094 17097     9 
17091 17094 17097 17098     9 
17091 17094 17097 17099     9 
17091 17094 17097 17100     9 
17095 17094 17097 17098     9 
17095 17094 17097 17099     9 
17095 17094 17097 17100     9 
17096 17094 17097 17098     9 
17096 17094 17097 17099     9 
17096 17094 17097 17100     9 
17094 17097 17100 17101     9 
17094 17097 17100 17102     9 
17094 17097 17100 17103     9 
17098 17097 17100 17101     9 
17098 17097 17100 17102     9 
17098 17097 17100 17103     9 
17099 17097 17100 17101     9 
17099 17097 17100 17102     9 
17099 17097 17100 17103     9 
17097 17100 17103 17104     9 
17097 17100 17103 17105     9 
17097 17100 17103 17106     9 
17101 17100 17103 17104     9 
17101 17100 17103 17105     9 
17101 17100 17103 17106     9 
17102 17100 17103 17104     9 
17102 17100 17103 17105     9 
17102 17100 17103 17106     9 
17100 17103 17106 17107     9 
17100 17103 17106 17108     9 
17100 17103 17106 17109     9 
17104 17103 17106 17107     9 
17104 17103 17106 17108     9 
17104 17103 17106 17109     9 
17105 17103 17106 17107     9 
17105 17103 17106 17108     9 
17105 17103 17106 17109     9 
17060 17110 17113 17114     9 
17060 17110 17113 17115     9 
17060 17110 17113 17116     9 
17111 17110 17113 17114     9 
17111 17110 17113 17115     9 
17111 17110 17113 17116     9 
17112 17110 17113 17114     9 
17112 17110 17113 17115     9 
17112 17110 17113 17116     9 
17110 17113 17116 17117     9 
17110 17113 17116 17118     9 
17110 17113 17116 17119     9 
17114 17113 17116 17117     9 
17114 17113 17116 17118     9 
17114 17113 17116 17119     9 
17115 17113 17116 17117     9 
17115 17113 17116 17118     9 
17115 17113 17116 17119     9 
17113 17116 17119 17120     9 
17113 17116 17119 17121     9 
17113 17116 17119 17122     9 
17117 17116 17119 17120     9 
17117 17116 17119 17121     9 
17117 17116 17119 17122     9 
17118 17116 17119 17120     9 
17118 17116 17119 17121     9 
17118 17116 17119 17122     9 
17116 17119 17122 17123     9 
17116 17119 17122 17124     9 
17116 17119 17122 17125     9 
17120 17119 17122 17123     9 
17120 17119 17122 17124     9 
17120 17119 17122 17125     9 
17121 17119 17122 17123     9 
17121 17119 17122 17124     9 
17121 17119 17122 17125     9 
17119 17122 17125 17126     9 
17119 17122 17125 17127     9 
17119 17122 17125 17128     9 
17123 17122 17125 17126     9 
17123 17122 17125 17127     9 
17123 17122 17125 17128     9 
17124 17122 17125 17126     9 
17124 17122 17125 17127     9 
17124 17122 17125 17128     9 
17122 17125 17128 17129     9 
17122 17125 17128 17130     9 
17122 17125 17128 17131     9 
17126 17125 17128 17129     9 
17126 17125 17128 17130     9 
17126 17125 17128 17131     9 
17127 17125 17128 17129     9 
17127 17125 17128 17130     9 
17127 17125 17128 17131     9 
17125 17128 17131 17132     9 
17125 17128 17131 17133     9 
17125 17128 17131 17134     9 
17129 17128 17131 17132     9 
17129 17128 17131 17133     9 
17129 17128 17131 17134     9 
17130 17128 17131 17132     9 
17130 17128 17131 17133     9 
17130 17128 17131 17134     9 
17128 17131 17134 17135     9 
17128 17131 17134 17136     9 
17128 17131 17134 17137     9 
17132 17131 17134 17135     9 
17132 17131 17134 17136     9 
17132 17131 17134 17137     9 
17133 17131 17134 17135     9 
17133 17131 17134 17136     9 
17133 17131 17134 17137     9 
17131 17134 17137 17138     9 
17131 17134 17137 17139     9 
17131 17134 17137 17140     9 
17135 17134 17137 17138     9 
17135 17134 17137 17139     9 
17135 17134 17137 17140     9 
17136 17134 17137 17138     9 
17136 17134 17137 17139     9 
17136 17134 17137 17140     9 
17134 17137 17140 17141     9 
17134 17137 17140 17142     9 
17134 17137 17140 17143     9 
17138 17137 17140 17141     9 
17138 17137 17140 17142     9 
17138 17137 17140 17143     9 
17139 17137 17140 17141     9 
17139 17137 17140 17142     9 
17139 17137 17140 17143     9 
17137 17140 17143 17144     9 
17137 17140 17143 17145     9 
17137 17140 17143 17146     9 
17141 17140 17143 17144     9 
17141 17140 17143 17145     9 
17141 17140 17143 17146     9 
17142 17140 17143 17144     9 
17142 17140 17143 17145     9 
17142 17140 17143 17146     9 
17140 17143 17146 17147     9 
17140 17143 17146 17148     9 
17140 17143 17146 17149     9 
17144 17143 17146 17147     9 
17144 17143 17146 17148     9 
17144 17143 17146 17149     9 
17145 17143 17146 17147     9 
17145 17143 17146 17148     9 
17145 17143 17146 17149     9 
17143 17146 17149 17150     9 
17143 17146 17149 17151     9 
17143 17146 17149 17152     9 
17147 17146 17149 17150     9 
17147 17146 17149 17151     9 
17147 17146 17149 17152     9 
17148 17146 17149 17150     9 
17148 17146 17149 17151     9 
17148 17146 17149 17152     9 
17157 17153 17154 17155     9 
17157 17153 17154 17156     9 
17157 17153 17154 17169     9 
17161 17153 17154 17155     9 
17161 17153 17154 17156     9 
17161 17153 17154 17169     9 
17165 17153 17154 17155     9 
17165 17153 17154 17156     9 
17165 17153 17154 17169     9 
17154 17153 17157 17158     9 
17154 17153 17157 17159     9 
17154 17153 17157 17160     9 
17161 17153 17157 17158     9 
17161 17153 17157 17159     9 
17161 17153 17157 17160     9 
17165 17153 17157 17158     9 
17165 17153 17157 17159     9 
17165 17153 17157 17160     9 
17154 17153 17161 17162     9 
17154 17153 17161 17163     9 
17154 17153 17161 17164     9 
17157 17153 17161 17162     9 
17157 17153 17161 17163     9 
17157 17153 17161 17164     9 
17165 17153 17161 17162     9 
17165 17153 17161 17163     9 
17165 17153 17161 17164     9 
17154 17153 17165 17166     9 
17154 17153 17165 17167     9 
17154 17153 17165 17168     9 
17157 17153 17165 17166     9 
17157 17153 17165 17167     9 
17157 17153 17165 17168     9 
17161 17153 17165 17166     9 
17161 17153 17165 17167     9 
17161 17153 17165 17168     9 
17153 17154 17169 17170     9 
17153 17154 17169 17171     9 
17153 17154 17169 17175     9 
17155 17154 17169 17170     9 
17155 17154 17169 17171     9 
17155 17154 17169 17175     9 
17156 17154 17169 17170     9 
17156 17154 17169 17171     9 
17156 17154 17169 17175     9 
17154 17169 17175 17172     9 
17170 17169 17175 17172     9 
17171 17169 17175 17172     9 
17173 17172 17175 17169     9 
17174 17172 17175 17169     9 
17176 17172 17175 17169     9 
17173 17172 17176 17177     9 
17174 17172 17176 17177     9 
17175 17172 17176 17177     9 
17172 17176 17177 17178     9 
17172 17176 17177 17179     9 
17172 17176 17177 17180     9 
17176 17177 17180 17181     9 
17176 17177 17180 17182     9 
17176 17177 17180 17188     9 
17178 17177 17180 17181     9 
17178 17177 17180 17182     9 
17178 17177 17180 17188     9 
17179 17177 17180 17181     9 
17179 17177 17180 17182     9 
17179 17177 17180 17188     9 
17177 17180 17182 17183     9 
17181 17180 17182 17183     9 
17188 17180 17182 17183     9 
17177 17180 17188 17189     9 
17177 17180 17188 17190     9 
17177 17180 17188 17191     9 
17181 17180 17188 17189     9 
17181 17180 17188 17190     9 
17181 17180 17188 17191     9 
17182 17180 17188 17189     9 
17182 17180 17188 17190     9 
17182 17180 17188 17191     9 
17180 17182 17183 17184     9 
17180 17182 17183 17185     9 
17182 17183 17185 17186     9 
17182 17183 17185 17187     9 
17182 17183 17185 17197     9 
17184 17183 17185 17186     9 
17184 17183 17185 17187     9 
17184 17183 17185 17197     9 
17183 17185 17197 17198     9 
17183 17185 17197 17199     9 
17183 17185 17197 17200     9 
17186 17185 17197 17198     9 
17186 17185 17197 17199     9 
17186 17185 17197 17200     9 
17187 17185 17197 17198     9 
17187 17185 17197 17199     9 
17187 17185 17197 17200     9 
17180 17188 17191 17192     9 
17189 17188 17191 17192     9 
17190 17188 17191 17192     9 
17188 17191 17192 17193     9 
17188 17191 17192 17194     9 
17191 17192 17194 17195     9 
17191 17192 17194 17196     9 
17191 17192 17194 17244     9 
17193 17192 17194 17195     9 
17193 17192 17194 17196     9 
17193 17192 17194 17244     9 
17192 17194 17244 17245     9 
17192 17194 17244 17246     9 
17192 17194 17244 17247     9 
17195 17194 17244 17245     9 
17195 17194 17244 17246     9 
17195 17194 17244 17247     9 
17196 17194 17244 17245     9 
17196 17194 17244 17246     9 
17196 17194 17244 17247     9 
17185 17197 17200 17201     9 
17185 17197 17200 17202     9 
17185 17197 17200 17203     9 
17198 17197 17200 17201     9 
17198 17197 17200 17202     9 
17198 17197 17200 17203     9 
17199 17197 17200 17201     9 
17199 17197 17200 17202     9 
17199 17197 17200 17203     9 
17197 17200 17203 17204     9 
17197 17200 17203 17205     9 
17197 17200 17203 17206     9 
17201 17200 17203 17204     9 
17201 17200 17203 17205     9 
17201 17200 17203 17206     9 
17202 17200 17203 17204     9 
17202 17200 17203 17205     9 
17202 17200 17203 17206     9 
17200 17203 17206 17207     9 
17200 17203 17206 17208     9 
17200 17203 17206 17209     9 
17204 17203 17206 17207     9 
17204 17203 17206 17208     9 
17204 17203 17206 17209     9 
17205 17203 17206 17207     9 
17205 17203 17206 17208     9 
17205 17203 17206 17209     9 
17203 17206 17209 17210     9 
17203 17206 17209 17211     9 
17203 17206 17209 17212     9 
17207 17206 17209 17210     9 
17207 17206 17209 17211     9 
17207 17206 17209 17212     9 
17208 17206 17209 17210     9 
17208 17206 17209 17211     9 
17208 17206 17209 17212     9 
17206 17209 17212 17213     9 
17206 17209 17212 17214     9 
17206 17209 17212 17215     9 
17210 17209 17212 17213     9 
17210 17209 17212 17214     9 
17210 17209 17212 17215     9 
17211 17209 17212 17213     9 
17211 17209 17212 17214     9 
17211 17209 17212 17215     9 
17209 17212 17215 17216     9 
17209 17212 17215 17217     9 
17213 17212 17215 17216     9 
17213 17212 17215 17217     9 
17214 17212 17215 17216     9 
17214 17212 17215 17217     9 
17212 17215 17217 17218     9 
17212 17215 17217 17219     9 
17216 17215 17217 17218     9 
17216 17215 17217 17219     9 
17215 17217 17219 17220     9 
17215 17217 17219 17221     9 
17215 17217 17219 17222     9 
17218 17217 17219 17220     9 
17218 17217 17219 17221     9 
17218 17217 17219 17222     9 
17217 17219 17222 17223     9 
17217 17219 17222 17224     9 
17217 17219 17222 17225     9 
17220 17219 17222 17223     9 
17220 17219 17222 17224     9 
17220 17219 17222 17225     9 
17221 17219 17222 17223     9 
17221 17219 17222 17224     9 
17221 17219 17222 17225     9 
17219 17222 17225 17226     9 
17219 17222 17225 17227     9 
17219 17222 17225 17228     9 
17223 17222 17225 17226     9 
17223 17222 17225 17227     9 
17223 17222 17225 17228     9 
17224 17222 17225 17226     9 
17224 17222 17225 17227     9 
17224 17222 17225 17228     9 
17222 17225 17228 17229     9 
17222 17225 17228 17230     9 
17222 17225 17228 17231     9 
17226 17225 17228 17229     9 
17226 17225 17228 17230     9 
17226 17225 17228 17231     9 
17227 17225 17228 17229     9 
17227 17225 17228 17230     9 
17227 17225 17228 17231     9 
17225 17228 17231 17232     9 
17225 17228 17231 17233     9 
17225 17228 17231 17234     9 
17229 17228 17231 17232     9 
17229 17228 17231 17233     9 
17229 17228 17231 17234     9 
17230 17228 17231 17232     9 
17230 17228 17231 17233     9 
17230 17228 17231 17234     9 
17228 17231 17234 17235     9 
17228 17231 17234 17236     9 
17228 17231 17234 17237     9 
17232 17231 17234 17235     9 
17232 17231 17234 17236     9 
17232 17231 17234 17237     9 
17233 17231 17234 17235     9 
17233 17231 17234 17236     9 
17233 17231 17234 17237     9 
17231 17234 17237 17238     9 
17231 17234 17237 17239     9 
17231 17234 17237 17240     9 
17235 17234 17237 17238     9 
17235 17234 17237 17239     9 
17235 17234 17237 17240     9 
17236 17234 17237 17238     9 
17236 17234 17237 17239     9 
17236 17234 17237 17240     9 
17234 17237 17240 17241     9 
17234 17237 17240 17242     9 
17234 17237 17240 17243     9 
17238 17237 17240 17241     9 
17238 17237 17240 17242     9 
17238 17237 17240 17243     9 
17239 17237 17240 17241     9 
17239 17237 17240 17242     9 
17239 17237 17240 17243     9 
17194 17244 17247 17248     9 
17194 17244 17247 17249     9 
17194 17244 17247 17250     9 
17245 17244 17247 17248     9 
17245 17244 17247 17249     9 
17245 17244 17247 17250     9 
17246 17244 17247 17248     9 
17246 17244 17247 17249     9 
17246 17244 17247 17250     9 
17244 17247 17250 17251     9 
17244 17247 17250 17252     9 
17244 17247 17250 17253     9 
17248 17247 17250 17251     9 
17248 17247 17250 17252     9 
17248 17247 17250 17253     9 
17249 17247 17250 17251     9 
17249 17247 17250 17252     9 
17249 17247 17250 17253     9 
17247 17250 17253 17254     9 
17247 17250 17253 17255     9 
17247 17250 17253 17256     9 
17251 17250 17253 17254     9 
17251 17250 17253 17255     9 
17251 17250 17253 17256     9 
17252 17250 17253 17254     9 
17252 17250 17253 17255     9 
17252 17250 17253 17256     9 
17250 17253 17256 17257     9 
17250 17253 17256 17258     9 
17250 17253 17256 17259     9 
17254 17253 17256 17257     9 
17254 17253 17256 17258     9 
17254 17253 17256 17259     9 
17255 17253 17256 17257     9 
17255 17253 17256 17258     9 
17255 17253 17256 17259     9 
17253 17256 17259 17260     9 
17253 17256 17259 17261     9 
17253 17256 17259 17262     9 
17257 17256 17259 17260     9 
17257 17256 17259 17261     9 
17257 17256 17259 17262     9 
17258 17256 17259 17260     9 
17258 17256 17259 17261     9 
17258 17256 17259 17262     9 
17256 17259 17262 17263     9 
17256 17259 17262 17264     9 
17256 17259 17262 17265     9 
17260 17259 17262 17263     9 
17260 17259 17262 17264     9 
17260 17259 17262 17265     9 
17261 17259 17262 17263     9 
17261 17259 17262 17264     9 
17261 17259 17262 17265     9 
17259 17262 17265 17266     9 
17259 17262 17265 17267     9 
17259 17262 17265 17268     9 
17263 17262 17265 17266     9 
17263 17262 17265 17267     9 
17263 17262 17265 17268     9 
17264 17262 17265 17266     9 
17264 17262 17265 17267     9 
17264 17262 17265 17268     9 
17262 17265 17268 17269     9 
17262 17265 17268 17270     9 
17262 17265 17268 17271     9 
17266 17265 17268 17269     9 
17266 17265 17268 17270     9 
17266 17265 17268 17271     9 
17267 17265 17268 17269     9 
17267 17265 17268 17270     9 
17267 17265 17268 17271     9 
17265 17268 17271 17272     9 
17265 17268 17271 17273     9 
17265 17268 17271 17274     9 
17269 17268 17271 17272     9 
17269 17268 17271 17273     9 
17269 17268 17271 17274     9 
17270 17268 17271 17272     9 
17270 17268 17271 17273     9 
17270 17268 17271 17274     9 
17268 17271 17274 17275     9 
17268 17271 17274 17276     9 
17268 17271 17274 17277     9 
17272 17271 17274 17275     9 
17272 17271 17274 17276     9 
17272 17271 17274 17277     9 
17273 17271 17274 17275     9 
17273 17271 17274 17276     9 
17273 17271 17274 17277     9 
17271 17274 17277 17278     9 
17271 17274 17277 17279     9 
17271 17274 17277 17280     9 
17275 17274 17277 17278     9 
17275 17274 17277 17279     9 
17275 17274 17277 17280     9 
17276 17274 17277 17278     9 
17276 17274 17277 17279     9 
17276 17274 17277 17280     9 
17274 17277 17280 17281     9 
17274 17277 17280 17282     9 
17274 17277 17280 17283     9 
17278 17277 17280 17281     9 
17278 17277 17280 17282     9 
17278 17277 17280 17283     9 
17279 17277 17280 17281     9 
17279 17277 17280 17282     9 
17279 17277 17280 17283     9 
17277 17280 17283 17284     9 
17277 17280 17283 17285     9 
17277 17280 17283 17286     9 
17281 17280 17283 17284     9 
17281 17280 17283 17285     9 
17281 17280 17283 17286     9 
17282 17280 17283 17284     9 
17282 17280 17283 17285     9 
17282 17280 17283 17286     9 
17291 17287 17288 17289     9 
17291 17287 17288 17290     9 
17291 17287 17288 17303     9 
17295 17287 17288 17289     9 
17295 17287 17288 17290     9 
17295 17287 17288 17303     9 
17299 17287 17288 17289     9 
17299 17287 17288 17290     9 
17299 17287 17288 17303     9 
17288 17287 17291 17292     9 
17288 17287 17291 17293     9 
17288 17287 17291 17294     9 
17295 17287 17291 17292     9 
17295 17287 17291 17293     9 
17295 17287 17291 17294     9 
17299 17287 17291 17292     9 
17299 17287 17291 17293     9 
17299 17287 17291 17294     9 
17288 17287 17295 17296     9 
17288 17287 17295 17297     9 
17288 17287 17295 17298     9 
17291 17287 17295 17296     9 
17291 17287 17295 17297     9 
17291 17287 17295 17298     9 
17299 17287 17295 17296     9 
17299 17287 17295 17297     9 
17299 17287 17295 17298     9 
17288 17287 17299 17300     9 
17288 17287 17299 17301     9 
17288 17287 17299 17302     9 
17291 17287 17299 17300     9 
17291 17287 17299 17301     9 
17291 17287 17299 17302     9 
17295 17287 17299 17300     9 
17295 17287 17299 17301     9 
17295 17287 17299 17302     9 
17287 17288 17303 17304     9 
17287 17288 17303 17305     9 
17287 17288 17303 17309     9 
17289 17288 17303 17304     9 
17289 17288 17303 17305     9 
17289 17288 17303 17309     9 
17290 17288 17303 17304     9 
17290 17288 17303 17305     9 
17290 17288 17303 17309     9 
17288 17303 17309 17306     9 
17304 17303 17309 17306     9 
17305 17303 17309 17306     9 
17307 17306 17309 17303     9 
17308 17306 17309 17303     9 
17310 17306 17309 17303     9 
17307 17306 17310 17311     9 
17308 17306 17310 17311     9 
17309 17306 17310 17311     9 
17306 17310 17311 17312     9 
17306 17310 17311 17313     9 
17306 17310 17311 17314     9 
17310 17311 17314 17315     9 
17310 17311 17314 17316     9 
17310 17311 17314 17322     9 
17312 17311 17314 17315     9 
17312 17311 17314 17316     9 
17312 17311 17314 17322     9 
17313 17311 17314 17315     9 
17313 17311 17314 17316     9 
17313 17311 17314 17322     9 
17311 17314 17316 17317     9 
17315 17314 17316 17317     9 
17322 17314 17316 17317     9 
17311 17314 17322 17323     9 
17311 17314 17322 17324     9 
17311 17314 17322 17325     9 
17315 17314 17322 17323     9 
17315 17314 17322 17324     9 
17315 17314 17322 17325     9 
17316 17314 17322 17323     9 
17316 17314 17322 17324     9 
17316 17314 17322 17325     9 
17314 17316 17317 17318     9 
17314 17316 17317 17319     9 
17316 17317 17319 17320     9 
17316 17317 17319 17321     9 
17316 17317 17319 17331     9 
17318 17317 17319 17320     9 
17318 17317 17319 17321     9 
17318 17317 17319 17331     9 
17317 17319 17331 17332     9 
17317 17319 17331 17333     9 
17317 17319 17331 17334     9 
17320 17319 17331 17332     9 
17320 17319 17331 17333     9 
17320 17319 17331 17334     9 
17321 17319 17331 17332     9 
17321 17319 17331 17333     9 
17321 17319 17331 17334     9 
17314 17322 17325 17326     9 
17323 17322 17325 17326     9 
17324 17322 17325 17326     9 
17322 17325 17326 17327     9 
17322 17325 17326 17328     9 
17325 17326 17328 17329     9 
17325 17326 17328 17330     9 
17325 17326 17328 17378     9 
17327 17326 17328 17329     9 
17327 17326 17328 17330     9 
17327 17326 17328 17378     9 
17326 17328 17378 17379     9 
17326 17328 17378 17380     9 
17326 17328 17378 17381     9 
17329 17328 17378 17379     9 
17329 17328 17378 17380     9 
17329 17328 17378 17381     9 
17330 17328 17378 17379     9 
17330 17328 17378 17380     9 
17330 17328 17378 17381     9 
17319 17331 17334 17335     9 
17319 17331 17334 17336     9 
17319 17331 17334 17337     9 
17332 17331 17334 17335     9 
17332 17331 17334 17336     9 
17332 17331 17334 17337     9 
17333 17331 17334 17335     9 
17333 17331 17334 17336     9 
17333 17331 17334 17337     9 
17331 17334 17337 17338     9 
17331 17334 17337 17339     9 
17331 17334 17337 17340     9 
17335 17334 17337 17338     9 
17335 17334 17337 17339     9 
17335 17334 17337 17340     9 
17336 17334 17337 17338     9 
17336 17334 17337 17339     9 
17336 17334 17337 17340     9 
17334 17337 17340 17341     9 
17334 17337 17340 17342     9 
17334 17337 17340 17343     9 
17338 17337 17340 17341     9 
17338 17337 17340 17342     9 
17338 17337 17340 17343     9 
17339 17337 17340 17341     9 
17339 17337 17340 17342     9 
17339 17337 17340 17343     9 
17337 17340 17343 17344     9 
17337 17340 17343 17345     9 
17337 17340 17343 17346     9 
17341 17340 17343 17344     9 
17341 17340 17343 17345     9 
17341 17340 17343 17346     9 
17342 17340 17343 17344     9 
17342 17340 17343 17345     9 
17342 17340 17343 17346     9 
17340 17343 17346 17347     9 
17340 17343 17346 17348     9 
17340 17343 17346 17349     9 
17344 17343 17346 17347     9 
17344 17343 17346 17348     9 
17344 17343 17346 17349     9 
17345 17343 17346 17347     9 
17345 17343 17346 17348     9 
17345 17343 17346 17349     9 
17343 17346 17349 17350     9 
17343 17346 17349 17351     9 
17347 17346 17349 17350     9 
17347 17346 17349 17351     9 
17348 17346 17349 17350     9 
17348 17346 17349 17351     9 
17346 17349 17351 17352     9 
17346 17349 17351 17353     9 
17350 17349 17351 17352     9 
17350 17349 17351 17353     9 
17349 17351 17353 17354     9 
17349 17351 17353 17355     9 
17349 17351 17353 17356     9 
17352 17351 17353 17354     9 
17352 17351 17353 17355     9 
17352 17351 17353 17356     9 
17351 17353 17356 17357     9 
17351 17353 17356 17358     9 
17351 17353 17356 17359     9 
17354 17353 17356 17357     9 
17354 17353 17356 17358     9 
17354 17353 17356 17359     9 
17355 17353 17356 17357     9 
17355 17353 17356 17358     9 
17355 17353 17356 17359     9 
17353 17356 17359 17360     9 
17353 17356 17359 17361     9 
17353 17356 17359 17362     9 
17357 17356 17359 17360     9 
17357 17356 17359 17361     9 
17357 17356 17359 17362     9 
17358 17356 17359 17360     9 
17358 17356 17359 17361     9 
17358 17356 17359 17362     9 
17356 17359 17362 17363     9 
17356 17359 17362 17364     9 
17356 17359 17362 17365     9 
17360 17359 17362 17363     9 
17360 17359 17362 17364     9 
17360 17359 17362 17365     9 
17361 17359 17362 17363     9 
17361 17359 17362 17364     9 
17361 17359 17362 17365     9 
17359 17362 17365 17366     9 
17359 17362 17365 17367     9 
17359 17362 17365 17368     9 
17363 17362 17365 17366     9 
17363 17362 17365 17367     9 
17363 17362 17365 17368     9 
17364 17362 17365 17366     9 
17364 17362 17365 17367     9 
17364 17362 17365 17368     9 
17362 17365 17368 17369     9 
17362 17365 17368 17370     9 
17362 17365 17368 17371     9 
17366 17365 17368 17369     9 
17366 17365 17368 17370     9 
17366 17365 17368 17371     9 
17367 17365 17368 17369     9 
17367 17365 17368 17370     9 
17367 17365 17368 17371     9 
17365 17368 17371 17372     9 
17365 17368 17371 17373     9 
17365 17368 17371 17374     9 
17369 17368 17371 17372     9 
17369 17368 17371 17373     9 
17369 17368 17371 17374     9 
17370 17368 17371 17372     9 
17370 17368 17371 17373     9 
17370 17368 17371 17374     9 
17368 17371 17374 17375     9 
17368 17371 17374 17376     9 
17368 17371 17374 17377     9 
17372 17371 17374 17375     9 
17372 17371 17374 17376     9 
17372 17371 17374 17377     9 
17373 17371 17374 17375     9 
17373 17371 17374 17376     9 
17373 17371 17374 17377     9 
17328 17378 17381 17382     9 
17328 17378 17381 17383     9 
17328 17378 17381 17384     9 
17379 17378 17381 17382     9 
17379 17378 17381 17383     9 
17379 17378 17381 17384     9 
17380 17378 17381 17382     9 
17380 17378 17381 17383     9 
17380 17378 17381 17384     9 
17378 17381 17384 17385     9 
17378 17381 17384 17386     9 
17378 17381 17384 17387     9 
17382 17381 17384 17385     9 
17382 17381 17384 17386     9 
17382 17381 17384 17387     9 
17383 17381 17384 17385     9 
17383 17381 17384 17386     9 
17383 17381 17384 17387     9 
17381 17384 17387 17388     9 
17381 17384 17387 17389     9 
17381 17384 17387 17390     9 
17385 17384 17387 17388     9 
17385 17384 17387 17389     9 
17385 17384 17387 17390     9 
17386 17384 17387 17388     9 
17386 17384 17387 17389     9 
17386 17384 17387 17390     9 
17384 17387 17390 17391     9 
17384 17387 17390 17392     9 
17384 17387 17390 17393     9 
17388 17387 17390 17391     9 
17388 17387 17390 17392     9 
17388 17387 17390 17393     9 
17389 17387 17390 17391     9 
17389 17387 17390 17392     9 
17389 17387 17390 17393     9 
17387 17390 17393 17394     9 
17387 17390 17393 17395     9 
17387 17390 17393 17396     9 
17391 17390 17393 17394     9 
17391 17390 17393 17395     9 
17391 17390 17393 17396     9 
17392 17390 17393 17394     9 
17392 17390 17393 17395     9 
17392 17390 17393 17396     9 
17390 17393 17396 17397     9 
17390 17393 17396 17398     9 
17390 17393 17396 17399     9 
17394 17393 17396 17397     9 
17394 17393 17396 17398     9 
17394 17393 17396 17399     9 
17395 17393 17396 17397     9 
17395 17393 17396 17398     9 
17395 17393 17396 17399     9 
17393 17396 17399 17400     9 
17393 17396 17399 17401     9 
17393 17396 17399 17402     9 
17397 17396 17399 17400     9 
17397 17396 17399 17401     9 
17397 17396 17399 17402     9 
17398 17396 17399 17400     9 
17398 17396 17399 17401     9 
17398 17396 17399 17402     9 
17396 17399 17402 17403     9 
17396 17399 17402 17404     9 
17396 17399 17402 17405     9 
17400 17399 17402 17403     9 
17400 17399 17402 17404     9 
17400 17399 17402 17405     9 
17401 17399 17402 17403     9 
17401 17399 17402 17404     9 
17401 17399 17402 17405     9 
17399 17402 17405 17406     9 
17399 17402 17405 17407     9 
17399 17402 17405 17408     9 
17403 17402 17405 17406     9 
17403 17402 17405 17407     9 
17403 17402 17405 17408     9 
17404 17402 17405 17406     9 
17404 17402 17405 17407     9 
17404 17402 17405 17408     9 
17402 17405 17408 17409     9 
17402 17405 17408 17410     9 
17402 17405 17408 17411     9 
17406 17405 17408 17409     9 
17406 17405 17408 17410     9 
17406 17405 17408 17411     9 
17407 17405 17408 17409     9 
17407 17405 17408 17410     9 
17407 17405 17408 17411     9 
17405 17408 17411 17412     9 
17405 17408 17411 17413     9 
17405 17408 17411 17414     9 
17409 17408 17411 17412     9 
17409 17408 17411 17413     9 
17409 17408 17411 17414     9 
17410 17408 17411 17412     9 
17410 17408 17411 17413     9 
17410 17408 17411 17414     9 
17408 17411 17414 17415     9 
17408 17411 17414 17416     9 
17408 17411 17414 17417     9 
17412 17411 17414 17415     9 
17412 17411 17414 17416     9 
17412 17411 17414 17417     9 
17413 17411 17414 17415     9 
17413 17411 17414 17416     9 
17413 17411 17414 17417     9 
17411 17414 17417 17418     9 
17411 17414 17417 17419     9 
17411 17414 17417 17420     9 
17415 17414 17417 17418     9 
17415 17414 17417 17419     9 
17415 17414 17417 17420     9 
17416 17414 17417 17418     9 
17416 17414 17417 17419     9 
17416 17414 17417 17420     9 
17425 17421 17422 17423     9 
17425 17421 17422 17424     9 
17425 17421 17422 17437     9 
17429 17421 17422 17423     9 
17429 17421 17422 17424     9 
17429 17421 17422 17437     9 
17433 17421 17422 17423     9 
17433 17421 17422 17424     9 
17433 17421 17422 17437     9 
17422 17421 17425 17426     9 
17422 17421 17425 17427     9 
17422 17421 17425 17428     9 
17429 17421 17425 17426     9 
17429 17421 17425 17427     9 
17429 17421 17425 17428     9 
17433 17421 17425 17426     9 
17433 17421 17425 17427     9 
17433 17421 17425 17428     9 
17422 17421 17429 17430     9 
17422 17421 17429 17431     9 
17422 17421 17429 17432     9 
17425 17421 17429 17430     9 
17425 17421 17429 17431     9 
17425 17421 17429 17432     9 
17433 17421 17429 17430     9 
17433 17421 17429 17431     9 
17433 17421 17429 17432     9 
17422 17421 17433 17434     9 
17422 17421 17433 17435     9 
17422 17421 17433 17436     9 
17425 17421 17433 17434     9 
17425 17421 17433 17435     9 
17425 17421 17433 17436     9 
17429 17421 17433 17434     9 
17429 17421 17433 17435     9 
17429 17421 17433 17436     9 
17421 17422 17437 17438     9 
17421 17422 17437 17439     9 
17421 17422 17437 17443     9 
17423 17422 17437 17438     9 
17423 17422 17437 17439     9 
17423 17422 17437 17443     9 
17424 17422 17437 17438     9 
17424 17422 17437 17439     9 
17424 17422 17437 17443     9 
17422 17437 17443 17440     9 
17438 17437 17443 17440     9 
17439 17437 17443 17440     9 
17441 17440 17443 17437     9 
17442 17440 17443 17437     9 
17444 17440 17443 17437     9 
17441 17440 17444 17445     9 
17442 17440 17444 17445     9 
17443 17440 17444 17445     9 
17440 17444 17445 17446     9 
17440 17444 17445 17447     9 
17440 17444 17445 17448     9 
17444 17445 17448 17449     9 
17444 17445 17448 17450     9 
17444 17445 17448 17456     9 
17446 17445 17448 17449     9 
17446 17445 17448 17450     9 
17446 17445 17448 17456     9 
17447 17445 17448 17449     9 
17447 17445 17448 17450     9 
17447 17445 17448 17456     9 
17445 17448 17450 17451     9 
17449 17448 17450 17451     9 
17456 17448 17450 17451     9 
17445 17448 17456 17457     9 
17445 17448 17456 17458     9 
17445 17448 17456 17459     9 
17449 17448 17456 17457     9 
17449 17448 17456 17458     9 
17449 17448 17456 17459     9 
17450 17448 17456 17457     9 
17450 17448 17456 17458     9 
17450 17448 17456 17459     9 
17448 17450 17451 17452     9 
17448 17450 17451 17453     9 
17450 17451 17453 17454     9 
17450 17451 17453 17455     9 
17450 17451 17453 17465     9 
17452 17451 17453 17454     9 
17452 17451 17453 17455     9 
17452 17451 17453 17465     9 
17451 17453 17465 17466     9 
17451 17453 17465 17467     9 
17451 17453 17465 17468     9 
17454 17453 17465 17466     9 
17454 17453 17465 17467     9 
17454 17453 17465 17468     9 
17455 17453 17465 17466     9 
17455 17453 17465 17467     9 
17455 17453 17465 17468     9 
17448 17456 17459 17460     9 
17457 17456 17459 17460     9 
17458 17456 17459 17460     9 
17456 17459 17460 17461     9 
17456 17459 17460 17462     9 
17459 17460 17462 17463     9 
17459 17460 17462 17464     9 
17459 17460 17462 17512     9 
17461 17460 17462 17463     9 
17461 17460 17462 17464     9 
17461 17460 17462 17512     9 
17460 17462 17512 17513     9 
17460 17462 17512 17514     9 
17460 17462 17512 17515     9 
17463 17462 17512 17513     9 
17463 17462 17512 17514     9 
17463 17462 17512 17515     9 
17464 17462 17512 17513     9 
17464 17462 17512 17514     9 
17464 17462 17512 17515     9 
17453 17465 17468 17469     9 
17453 17465 17468 17470     9 
17453 17465 17468 17471     9 
17466 17465 17468 17469     9 
17466 17465 17468 17470     9 
17466 17465 17468 17471     9 
17467 17465 17468 17469     9 
17467 17465 17468 17470     9 
17467 17465 17468 17471     9 
17465 17468 17471 17472     9 
17465 17468 17471 17473     9 
17465 17468 17471 17474     9 
17469 17468 17471 17472     9 
17469 17468 17471 17473     9 
17469 17468 17471 17474     9 
17470 17468 17471 17472     9 
17470 17468 17471 17473     9 
17470 17468 17471 17474     9 
17468 17471 17474 17475     9 
17468 17471 17474 17476     9 
17468 17471 17474 17477     9 
17472 17471 17474 17475     9 
17472 17471 17474 17476     9 
17472 17471 17474 17477     9 
17473 17471 17474 17475     9 
17473 17471 17474 17476     9 
17473 17471 17474 17477     9 
17471 17474 17477 17478     9 
17471 17474 17477 17479     9 
17471 17474 17477 17480     9 
17475 17474 17477 17478     9 
17475 17474 17477 17479     9 
17475 17474 17477 17480     9 
17476 17474 17477 17478     9 
17476 17474 17477 17479     9 
17476 17474 17477 17480     9 
17474 17477 17480 17481     9 
17474 17477 17480 17482     9 
17474 17477 17480 17483     9 
17478 17477 17480 17481     9 
17478 17477 17480 17482     9 
17478 17477 17480 17483     9 
17479 17477 17480 17481     9 
17479 17477 17480 17482     9 
17479 17477 17480 17483     9 
17477 17480 17483 17484     9 
17477 17480 17483 17485     9 
17481 17480 17483 17484     9 
17481 17480 17483 17485     9 
17482 17480 17483 17484     9 
17482 17480 17483 17485     9 
17480 17483 17485 17486     9 
17480 17483 17485 17487     9 
17484 17483 17485 17486     9 
17484 17483 17485 17487     9 
17483 17485 17487 17488     9 
17483 17485 17487 17489     9 
17483 17485 17487 17490     9 
17486 17485 17487 17488     9 
17486 17485 17487 17489     9 
17486 17485 17487 17490     9 
17485 17487 17490 17491     9 
17485 17487 17490 17492     9 
17485 17487 17490 17493     9 
17488 17487 17490 17491     9 
17488 17487 17490 17492     9 
17488 17487 17490 17493     9 
17489 17487 17490 17491     9 
17489 17487 17490 17492     9 
17489 17487 17490 17493     9 
17487 17490 17493 17494     9 
17487 17490 17493 17495     9 
17487 17490 17493 17496     9 
17491 17490 17493 17494     9 
17491 17490 17493 17495     9 
17491 17490 17493 17496     9 
17492 17490 17493 17494     9 
17492 17490 17493 17495     9 
17492 17490 17493 17496     9 
17490 17493 17496 17497     9 
17490 17493 17496 17498     9 
17490 17493 17496 17499     9 
17494 17493 17496 17497     9 
17494 17493 17496 17498     9 
17494 17493 17496 17499     9 
17495 17493 17496 17497     9 
17495 17493 17496 17498     9 
17495 17493 17496 17499     9 
17493 17496 17499 17500     9 
17493 17496 17499 17501     9 
17493 17496 17499 17502     9 
17497 17496 17499 17500     9 
17497 17496 17499 17501     9 
17497 17496 17499 17502     9 
17498 17496 17499 17500     9 
17498 17496 17499 17501     9 
17498 17496 17499 17502     9 
17496 17499 17502 17503     9 
17496 17499 17502 17504     9 
17496 17499 17502 17505     9 
17500 17499 17502 17503     9 
17500 17499 17502 17504     9 
17500 17499 17502 17505     9 
17501 17499 17502 17503     9 
17501 17499 17502 17504     9 
17501 17499 17502 17505     9 
17499 17502 17505 17506     9 
17499 17502 17505 17507     9 
17499 17502 17505 17508     9 
17503 17502 17505 17506     9 
17503 17502 17505 17507     9 
17503 17502 17505 17508     9 
17504 17502 17505 17506     9 
17504 17502 17505 17507     9 
17504 17502 17505 17508     9 
17502 17505 17508 17509     9 
17502 17505 17508 17510     9 
17502 17505 17508 17511     9 
17506 17505 17508 17509     9 
17506 17505 17508 17510     9 
17506 17505 17508 17511     9 
17507 17505 17508 17509     9 
17507 17505 17508 17510     9 
17507 17505 17508 17511     9 
17462 17512 17515 17516     9 
17462 17512 17515 17517     9 
17462 17512 17515 17518     9 
17513 17512 17515 17516     9 
17513 17512 17515 17517     9 
17513 17512 17515 17518     9 
17514 17512 17515 17516     9 
17514 17512 17515 17517     9 
17514 17512 17515 17518     9 
17512 17515 17518 17519     9 
17512 17515 17518 17520     9 
17512 17515 17518 17521     9 
17516 17515 17518 17519     9 
17516 17515 17518 17520     9 
17516 17515 17518 17521     9 
17517 17515 17518 17519     9 
17517 17515 17518 17520     9 
17517 17515 17518 17521     9 
17515 17518 17521 17522     9 
17515 17518 17521 17523     9 
17515 17518 17521 17524     9 
17519 17518 17521 17522     9 
17519 17518 17521 17523     9 
17519 17518 17521 17524     9 
17520 17518 17521 17522     9 
17520 17518 17521 17523     9 
17520 17518 17521 17524     9 
17518 17521 17524 17525     9 
17518 17521 17524 17526     9 
17518 17521 17524 17527     9 
17522 17521 17524 17525     9 
17522 17521 17524 17526     9 
17522 17521 17524 17527     9 
17523 17521 17524 17525     9 
17523 17521 17524 17526     9 
17523 17521 17524 17527     9 
17521 17524 17527 17528     9 
17521 17524 17527 17529     9 
17521 17524 17527 17530     9 
17525 17524 17527 17528     9 
17525 17524 17527 17529     9 
17525 17524 17527 17530     9 
17526 17524 17527 17528     9 
17526 17524 17527 17529     9 
17526 17524 17527 17530     9 
17524 17527 17530 17531     9 
17524 17527 17530 17532     9 
17524 17527 17530 17533     9 
17528 17527 17530 17531     9 
17528 17527 17530 17532     9 
17528 17527 17530 17533     9 
17529 17527 17530 17531     9 
17529 17527 17530 17532     9 
17529 17527 17530 17533     9 
17527 17530 17533 17534     9 
17527 17530 17533 17535     9 
17527 17530 17533 17536     9 
17531 17530 17533 17534     9 
17531 17530 17533 17535     9 
17531 17530 17533 17536     9 
17532 17530 17533 17534     9 
17532 17530 17533 17535     9 
17532 17530 17533 17536     9 
17530 17533 17536 17537     9 
17530 17533 17536 17538     9 
17530 17533 17536 17539     9 
17534 17533 17536 17537     9 
17534 17533 17536 17538     9 
17534 17533 17536 17539     9 
17535 17533 17536 17537     9 
17535 17533 17536 17538     9 
17535 17533 17536 17539     9 
17533 17536 17539 17540     9 
17533 17536 17539 17541     9 
17533 17536 17539 17542     9 
17537 17536 17539 17540     9 
17537 17536 17539 17541     9 
17537 17536 17539 17542     9 
17538 17536 17539 17540     9 
17538 17536 17539 17541     9 
17538 17536 17539 17542     9 
17536 17539 17542 17543     9 
17536 17539 17542 17544     9 
17536 17539 17542 17545     9 
17540 17539 17542 17543     9 
17540 17539 17542 17544     9 
17540 17539 17542 17545     9 
17541 17539 17542 17543     9 
17541 17539 17542 17544     9 
17541 17539 17542 17545     9 
17539 17542 17545 17546     9 
17539 17542 17545 17547     9 
17539 17542 17545 17548     9 
17543 17542 17545 17546     9 
17543 17542 17545 17547     9 
17543 17542 17545 17548     9 
17544 17542 17545 17546     9 
17544 17542 17545 17547     9 
17544 17542 17545 17548     9 
17542 17545 17548 17549     9 
17542 17545 17548 17550     9 
17542 17545 17548 17551     9 
17546 17545 17548 17549     9 
17546 17545 17548 17550     9 
17546 17545 17548 17551     9 
17547 17545 17548 17549     9 
17547 17545 17548 17550     9 
17547 17545 17548 17551     9 
17545 17548 17551 17552     9 
17545 17548 17551 17553     9 
17545 17548 17551 17554     9 
17549 17548 17551 17552     9 
17549 17548 17551 17553     9 
17549 17548 17551 17554     9 
17550 17548 17551 17552     9 
17550 17548 17551 17553     9 
17550 17548 17551 17554     9 
17559 17555 17556 17557     9 
17559 17555 17556 17558     9 
17559 17555 17556 17571     9 
17563 17555 17556 17557     9 
17563 17555 17556 17558     9 
17563 17555 17556 17571     9 
17567 17555 17556 17557     9 
17567 17555 17556 17558     9 
17567 17555 17556 17571     9 
17556 17555 17559 17560     9 
17556 17555 17559 17561     9 
17556 17555 17559 17562     9 
17563 17555 17559 17560     9 
17563 17555 17559 17561     9 
17563 17555 17559 17562     9 
17567 17555 17559 17560     9 
17567 17555 17559 17561     9 
17567 17555 17559 17562     9 
17556 17555 17563 17564     9 
17556 17555 17563 17565     9 
17556 17555 17563 17566     9 
17559 17555 17563 17564     9 
17559 17555 17563 17565     9 
17559 17555 17563 17566     9 
17567 17555 17563 17564     9 
17567 17555 17563 17565     9 
17567 17555 17563 17566     9 
17556 17555 17567 17568     9 
17556 17555 17567 17569     9 
17556 17555 17567 17570     9 
17559 17555 17567 17568     9 
17559 17555 17567 17569     9 
17559 17555 17567 17570     9 
17563 17555 17567 17568     9 
17563 17555 17567 17569     9 
17563 17555 17567 17570     9 
17555 17556 17571 17572     9 
17555 17556 17571 17573     9 
17555 17556 17571 17577     9 
17557 17556 17571 17572     9 
17557 17556 17571 17573     9 
17557 17556 17571 17577     9 
17558 17556 17571 17572     9 
17558 17556 17571 17573     9 
17558 17556 17571 17577     9 
17556 17571 17577 17574     9 
17572 17571 17577 17574     9 
17573 17571 17577 17574     9 
17575 17574 17577 17571     9 
17576 17574 17577 17571     9 
17578 17574 17577 17571     9 
17575 17574 17578 17579     9 
17576 17574 17578 17579     9 
17577 17574 17578 17579     9 
17574 17578 17579 17580     9 
17574 17578 17579 17581     9 
17574 17578 17579 17582     9 
17578 17579 17582 17583     9 
17578 17579 17582 17584     9 
17578 17579 17582 17590     9 
17580 17579 17582 17583     9 
17580 17579 17582 17584     9 
17580 17579 17582 17590     9 
17581 17579 17582 17583     9 
17581 17579 17582 17584     9 
17581 17579 17582 17590     9 
17579 17582 17584 17585     9 
17583 17582 17584 17585     9 
17590 17582 17584 17585     9 
17579 17582 17590 17591     9 
17579 17582 17590 17592     9 
17579 17582 17590 17593     9 
17583 17582 17590 17591     9 
17583 17582 17590 17592     9 
17583 17582 17590 17593     9 
17584 17582 17590 17591     9 
17584 17582 17590 17592     9 
17584 17582 17590 17593     9 
17582 17584 17585 17586     9 
17582 17584 17585 17587     9 
17584 17585 17587 17588     9 
17584 17585 17587 17589     9 
17584 17585 17587 17599     9 
17586 17585 17587 17588     9 
17586 17585 17587 17589     9 
17586 17585 17587 17599     9 
17585 17587 17599 17600     9 
17585 17587 17599 17601     9 
17585 17587 17599 17602     9 
17588 17587 17599 17600     9 
17588 17587 17599 17601     9 
17588 17587 17599 17602     9 
17589 17587 17599 17600     9 
17589 17587 17599 17601     9 
17589 17587 17599 17602     9 
17582 17590 17593 17594     9 
17591 17590 17593 17594     9 
17592 17590 17593 17594     9 
17590 17593 17594 17595     9 
17590 17593 17594 17596     9 
17593 17594 17596 17597     9 
17593 17594 17596 17598     9 
17593 17594 17596 17646     9 
17595 17594 17596 17597     9 
17595 17594 17596 17598     9 
17595 17594 17596 17646     9 
17594 17596 17646 17647     9 
17594 17596 17646 17648     9 
17594 17596 17646 17649     9 
17597 17596 17646 17647     9 
17597 17596 17646 17648     9 
17597 17596 17646 17649     9 
17598 17596 17646 17647     9 
17598 17596 17646 17648     9 
17598 17596 17646 17649     9 
17587 17599 17602 17603     9 
17587 17599 17602 17604     9 
17587 17599 17602 17605     9 
17600 17599 17602 17603     9 
17600 17599 17602 17604     9 
17600 17599 17602 17605     9 
17601 17599 17602 17603     9 
17601 17599 17602 17604     9 
17601 17599 17602 17605     9 
17599 17602 17605 17606     9 
17599 17602 17605 17607     9 
17599 17602 17605 17608     9 
17603 17602 17605 17606     9 
17603 17602 17605 17607     9 
17603 17602 17605 17608     9 
17604 17602 17605 17606     9 
17604 17602 17605 17607     9 
17604 17602 17605 17608     9 
17602 17605 17608 17609     9 
17602 17605 17608 17610     9 
17602 17605 17608 17611     9 
17606 17605 17608 17609     9 
17606 17605 17608 17610     9 
17606 17605 17608 17611     9 
17607 17605 17608 17609     9 
17607 17605 17608 17610     9 
17607 17605 17608 17611     9 
17605 17608 17611 17612     9 
17605 17608 17611 17613     9 
17605 17608 17611 17614     9 
17609 17608 17611 17612     9 
17609 17608 17611 17613     9 
17609 17608 17611 17614     9 
17610 17608 17611 17612     9 
17610 17608 17611 17613     9 
17610 17608 17611 17614     9 
17608 17611 17614 17615     9 
17608 17611 17614 17616     9 
17608 17611 17614 17617     9 
17612 17611 17614 17615     9 
17612 17611 17614 17616     9 
17612 17611 17614 17617     9 
17613 17611 17614 17615     9 
17613 17611 17614 17616     9 
17613 17611 17614 17617     9 
17611 17614 17617 17618     9 
17611 17614 17617 17619     9 
17615 17614 17617 17618     9 
17615 17614 17617 17619     9 
17616 17614 17617 17618     9 
17616 17614 17617 17619     9 
17614 17617 17619 17620     9 
17614 17617 17619 17621     9 
17618 17617 17619 17620     9 
17618 17617 17619 17621     9 
17617 17619 17621 17622     9 
17617 17619 17621 17623     9 
17617 17619 17621 17624     9 
17620 17619 17621 17622     9 
17620 17619 17621 17623     9 
17620 17619 17621 17624     9 
17619 17621 17624 17625     9 
17619 17621 17624 17626     9 
17619 17621 17624 17627     9 
17622 17621 17624 17625     9 
17622 17621 17624 17626     9 
17622 17621 17624 17627     9 
17623 17621 17624 17625     9 
17623 17621 17624 17626     9 
17623 17621 17624 17627     9 
17621 17624 17627 17628     9 
17621 17624 17627 17629     9 
17621 17624 17627 17630     9 
17625 17624 17627 17628     9 
17625 17624 17627 17629     9 
17625 17624 17627 17630     9 
17626 17624 17627 17628     9 
17626 17624 17627 17629     9 
17626 17624 17627 17630     9 
17624 17627 17630 17631     9 
17624 17627 17630 17632     9 
17624 17627 17630 17633     9 
17628 17627 17630 17631     9 
17628 17627 17630 17632     9 
17628 17627 17630 17633     9 
17629 17627 17630 17631     9 
17629 17627 17630 17632     9 
17629 17627 17630 17633     9 
17627 17630 17633 17634     9 
17627 17630 17633 17635     9 
17627 17630 17633 17636     9 
17631 17630 17633 17634     9 
17631 17630 17633 17635     9 
17631 17630 17633 17636     9 
17632 17630 17633 17634     9 
17632 17630 17633 17635     9 
17632 17630 17633 17636     9 
17630 17633 17636 17637     9 
17630 17633 17636 17638     9 
17630 17633 17636 17639     9 
17634 17633 17636 17637     9 
17634 17633 17636 17638     9 
17634 17633 17636 17639     9 
17635 17633 17636 17637     9 
17635 17633 17636 17638     9 
17635 17633 17636 17639     9 
17633 17636 17639 17640     9 
17633 17636 17639 17641     9 
17633 17636 17639 17642     9 
17637 17636 17639 17640     9 
17637 17636 17639 17641     9 
17637 17636 17639 17642     9 
17638 17636 17639 17640     9 
17638 17636 17639 17641     9 
17638 17636 17639 17642     9 
17636 17639 17642 17643     9 
17636 17639 17642 17644     9 
17636 17639 17642 17645     9 
17640 17639 17642 17643     9 
17640 17639 17642 17644     9 
17640 17639 17642 17645     9 
17641 17639 17642 17643     9 
17641 17639 17642 17644     9 
17641 17639 17642 17645     9 
17596 17646 17649 17650     9 
17596 17646 17649 17651     9 
17596 17646 17649 17652     9 
17647 17646 17649 17650     9 
17647 17646 17649 17651     9 
17647 17646 17649 17652     9 
17648 17646 17649 17650     9 
17648 17646 17649 17651     9 
17648 17646 17649 17652     9 
17646 17649 17652 17653     9 
17646 17649 17652 17654     9 
17646 17649 17652 17655     9 
17650 17649 17652 17653     9 
17650 17649 17652 17654     9 
17650 17649 17652 17655     9 
17651 17649 17652 17653     9 
17651 17649 17652 17654     9 
17651 17649 17652 17655     9 
17649 17652 17655 17656     9 
17649 17652 17655 17657     9 
17649 17652 17655 17658     9 
17653 17652 17655 17656     9 
17653 17652 17655 17657     9 
17653 17652 17655 17658     9 
17654 17652 17655 17656     9 
17654 17652 17655 17657     9 
17654 17652 17655 17658     9 
17652 17655 17658 17659     9 
17652 17655 17658 17660     9 
17652 17655 17658 17661     9 
17656 17655 17658 17659     9 
17656 17655 17658 17660     9 
17656 17655 17658 17661     9 
17657 17655 17658 17659     9 
17657 17655 17658 17660     9 
17657 17655 17658 17661     9 
17655 17658 17661 17662     9 
17655 17658 17661 17663     9 
17655 17658 17661 17664     9 
17659 17658 17661 17662     9 
17659 17658 17661 17663     9 
17659 17658 17661 17664     9 
17660 17658 17661 17662     9 
17660 17658 17661 17663     9 
17660 17658 17661 17664     9 
17658 17661 17664 17665     9 
17658 17661 17664 17666     9 
17658 17661 17664 17667     9 
17662 17661 17664 17665     9 
17662 17661 17664 17666     9 
17662 17661 17664 17667     9 
17663 17661 17664 17665     9 
17663 17661 17664 17666     9 
17663 17661 17664 17667     9 
17661 17664 17667 17668     9 
17661 17664 17667 17669     9 
17661 17664 17667 17670     9 
17665 17664 17667 17668     9 
17665 17664 17667 17669     9 
17665 17664 17667 17670     9 
17666 17664 17667 17668     9 
17666 17664 17667 17669     9 
17666 17664 17667 17670     9 
17664 17667 17670 17671     9 
17664 17667 17670 17672     9 
17664 17667 17670 17673     9 
17668 17667 17670 17671     9 
17668 17667 17670 17672     9 
17668 17667 17670 17673     9 
17669 17667 17670 17671     9 
17669 17667 17670 17672     9 
17669 17667 17670 17673     9 
17667 17670 17673 17674     9 
17667 17670 17673 17675     9 
17667 17670 17673 17676     9 
17671 17670 17673 17674     9 
17671 17670 17673 17675     9 
17671 17670 17673 17676     9 
17672 17670 17673 17674     9 
17672 17670 17673 17675     9 
17672 17670 17673 17676     9 
17670 17673 17676 17677     9 
17670 17673 17676 17678     9 
17670 17673 17676 17679     9 
17674 17673 17676 17677     9 
17674 17673 17676 17678     9 
17674 17673 17676 17679     9 
17675 17673 17676 17677     9 
17675 17673 17676 17678     9 
17675 17673 17676 17679     9 
17673 17676 17679 17680     9 
17673 17676 17679 17681     9 
17673 17676 17679 17682     9 
17677 17676 17679 17680     9 
17677 17676 17679 17681     9 
17677 17676 17679 17682     9 
17678 17676 17679 17680     9 
17678 17676 17679 17681     9 
17678 17676 17679 17682     9 
17676 17679 17682 17683     9 
17676 17679 17682 17684     9 
17676 17679 17682 17685     9 
17680 17679 17682 17683     9 
17680 17679 17682 17684     9 
17680 17679 17682 17685     9 
17681 17679 17682 17683     9 
17681 17679 17682 17684     9 
17681 17679 17682 17685     9 
17679 17682 17685 17686     9 
17679 17682 17685 17687     9 
17679 17682 17685 17688     9 
17683 17682 17685 17686     9 
17683 17682 17685 17687     9 
17683 17682 17685 17688     9 
17684 17682 17685 17686     9 
17684 17682 17685 17687     9 
17684 17682 17685 17688     9 
17693 17689 17690 17691     9 
17693 17689 17690 17692     9 
17693 17689 17690 17705     9 
17697 17689 17690 17691     9 
17697 17689 17690 17692     9 
17697 17689 17690 17705     9 
17701 17689 17690 17691     9 
17701 17689 17690 17692     9 
17701 17689 17690 17705     9 
17690 17689 17693 17694     9 
17690 17689 17693 17695     9 
17690 17689 17693 17696     9 
17697 17689 17693 17694     9 
17697 17689 17693 17695     9 
17697 17689 17693 17696     9 
17701 17689 17693 17694     9 
17701 17689 17693 17695     9 
17701 17689 17693 17696     9 
17690 17689 17697 17698     9 
17690 17689 17697 17699     9 
17690 17689 17697 17700     9 
17693 17689 17697 17698     9 
17693 17689 17697 17699     9 
17693 17689 17697 17700     9 
17701 17689 17697 17698     9 
17701 17689 17697 17699     9 
17701 17689 17697 17700     9 
17690 17689 17701 17702     9 
17690 17689 17701 17703     9 
17690 17689 17701 17704     9 
17693 17689 17701 17702     9 
17693 17689 17701 17703     9 
17693 17689 17701 17704     9 
17697 17689 17701 17702     9 
17697 17689 17701 17703     9 
17697 17689 17701 17704     9 
17689 17690 17705 17706     9 
17689 17690 17705 17707     9 
17689 17690 17705 17711     9 
17691 17690 17705 17706     9 
17691 17690 17705 17707     9 
17691 17690 17705 17711     9 
17692 17690 17705 17706     9 
17692 17690 17705 17707     9 
17692 17690 17705 17711     9 
17690 17705 17711 17708     9 
17706 17705 17711 17708     9 
17707 17705 17711 17708     9 
17709 17708 17711 17705     9 
17710 17708 17711 17705     9 
17712 17708 17711 17705     9 
17709 17708 17712 17713     9 
17710 17708 17712 17713     9 
17711 17708 17712 17713     9 
17708 17712 17713 17714     9 
17708 17712 17713 17715     9 
17708 17712 17713 17716     9 
17712 17713 17716 17717     9 
17712 17713 17716 17718     9 
17712 17713 17716 17724     9 
17714 17713 17716 17717     9 
17714 17713 17716 17718     9 
17714 17713 17716 17724     9 
17715 17713 17716 17717     9 
17715 17713 17716 17718     9 
17715 17713 17716 17724     9 
17713 17716 17718 17719     9 
17717 17716 17718 17719     9 
17724 17716 17718 17719     9 
17713 17716 17724 17725     9 
17713 17716 17724 17726     9 
17713 17716 17724 17727     9 
17717 17716 17724 17725     9 
17717 17716 17724 17726     9 
17717 17716 17724 17727     9 
17718 17716 17724 17725     9 
17718 17716 17724 17726     9 
17718 17716 17724 17727     9 
17716 17718 17719 17720     9 
17716 17718 17719 17721     9 
17718 17719 17721 17722     9 
17718 17719 17721 17723     9 
17718 17719 17721 17733     9 
17720 17719 17721 17722     9 
17720 17719 17721 17723     9 
17720 17719 17721 17733     9 
17719 17721 17733 17734     9 
17719 17721 17733 17735     9 
17719 17721 17733 17736     9 
17722 17721 17733 17734     9 
17722 17721 17733 17735     9 
17722 17721 17733 17736     9 
17723 17721 17733 17734     9 
17723 17721 17733 17735     9 
17723 17721 17733 17736     9 
17716 17724 17727 17728     9 
17725 17724 17727 17728     9 
17726 17724 17727 17728     9 
17724 17727 17728 17729     9 
17724 17727 17728 17730     9 
17727 17728 17730 17731     9 
17727 17728 17730 17732     9 
17727 17728 17730 17780     9 
17729 17728 17730 17731     9 
17729 17728 17730 17732     9 
17729 17728 17730 17780     9 
17728 17730 17780 17781     9 
17728 17730 17780 17782     9 
17728 17730 17780 17783     9 
17731 17730 17780 17781     9 
17731 17730 17780 17782     9 
17731 17730 17780 17783     9 
17732 17730 17780 17781     9 
17732 17730 17780 17782     9 
17732 17730 17780 17783     9 
17721 17733 17736 17737     9 
17721 17733 17736 17738     9 
17721 17733 17736 17739     9 
17734 17733 17736 17737     9 
17734 17733 17736 17738     9 
17734 17733 17736 17739     9 
17735 17733 17736 17737     9 
17735 17733 17736 17738     9 
17735 17733 17736 17739     9 
17733 17736 17739 17740     9 
17733 17736 17739 17741     9 
17733 17736 17739 17742     9 
17737 17736 17739 17740     9 
17737 17736 17739 17741     9 
17737 17736 17739 17742     9 
17738 17736 17739 17740     9 
17738 17736 17739 17741     9 
17738 17736 17739 17742     9 
17736 17739 17742 17743     9 
17736 17739 17742 17744     9 
17736 17739 17742 17745     9 
17740 17739 17742 17743     9 
17740 17739 17742 17744     9 
17740 17739 17742 17745     9 
17741 17739 17742 17743     9 
17741 17739 17742 17744     9 
17741 17739 17742 17745     9 
17739 17742 17745 17746     9 
17739 17742 17745 17747     9 
17739 17742 17745 17748     9 
17743 17742 17745 17746     9 
17743 17742 17745 17747     9 
17743 17742 17745 17748     9 
17744 17742 17745 17746     9 
17744 17742 17745 17747     9 
17744 17742 17745 17748     9 
17742 17745 17748 17749     9 
17742 17745 17748 17750     9 
17742 17745 17748 17751     9 
17746 17745 17748 17749     9 
17746 17745 17748 17750     9 
17746 17745 17748 17751     9 
17747 17745 17748 17749     9 
17747 17745 17748 17750     9 
17747 17745 17748 17751     9 
17745 17748 17751 17752     9 
17745 17748 17751 17753     9 
17749 17748 17751 17752     9 
17749 17748 17751 17753     9 
17750 17748 17751 17752     9 
17750 17748 17751 17753     9 
17748 17751 17753 17754     9 
17748 17751 17753 17755     9 
17752 17751 17753 17754     9 
17752 17751 17753 17755     9 
17751 17753 17755 17756     9 
17751 17753 17755 17757     9 
17751 17753 17755 17758     9 
17754 17753 17755 17756     9 
17754 17753 17755 17757     9 
17754 17753 17755 17758     9 
17753 17755 17758 17759     9 
17753 17755 17758 17760     9 
17753 17755 17758 17761     9 
17756 17755 17758 17759     9 
17756 17755 17758 17760     9 
17756 17755 17758 17761     9 
17757 17755 17758 17759     9 
17757 17755 17758 17760     9 
17757 17755 17758 17761     9 
17755 17758 17761 17762     9 
17755 17758 17761 17763     9 
17755 17758 17761 17764     9 
17759 17758 17761 17762     9 
17759 17758 17761 17763     9 
17759 17758 17761 17764     9 
17760 17758 17761 17762     9 
17760 17758 17761 17763     9 
17760 17758 17761 17764     9 
17758 17761 17764 17765     9 
17758 17761 17764 17766     9 
17758 17761 17764 17767     9 
17762 17761 17764 17765     9 
17762 17761 17764 17766     9 
17762 17761 17764 17767     9 
17763 17761 17764 17765     9 
17763 17761 17764 17766     9 
17763 17761 17764 17767     9 
17761 17764 17767 17768     9 
17761 17764 17767 17769     9 
17761 17764 17767 17770     9 
17765 17764 17767 17768     9 
17765 17764 17767 17769     9 
17765 17764 17767 17770     9 
17766 17764 17767 17768     9 
17766 17764 17767 17769     9 
17766 17764 17767 17770     9 
17764 17767 17770 17771     9 
17764 17767 17770 17772     9 
17764 17767 17770 17773     9 
17768 17767 17770 17771     9 
17768 17767 17770 17772     9 
17768 17767 17770 17773     9 
17769 17767 17770 17771     9 
17769 17767 17770 17772     9 
17769 17767 17770 17773     9 
17767 17770 17773 17774     9 
17767 17770 17773 17775     9 
17767 17770 17773 17776     9 
17771 17770 17773 17774     9 
17771 17770 17773 17775     9 
17771 17770 17773 17776     9 
17772 17770 17773 17774     9 
17772 17770 17773 17775     9 
17772 17770 17773 17776     9 
17770 17773 17776 17777     9 
17770 17773 17776 17778     9 
17770 17773 17776 17779     9 
17774 17773 17776 17777     9 
17774 17773 17776 17778     9 
17774 17773 17776 17779     9 
17775 17773 17776 17777     9 
17775 17773 17776 17778     9 
17775 17773 17776 17779     9 
17730 17780 17783 17784     9 
17730 17780 17783 17785     9 
17730 17780 17783 17786     9 
17781 17780 17783 17784     9 
17781 17780 17783 17785     9 
17781 17780 17783 17786     9 
17782 17780 17783 17784     9 
17782 17780 17783 17785     9 
17782 17780 17783 17786     9 
17780 17783 17786 17787     9 
17780 17783 17786 17788     9 
17780 17783 17786 17789     9 
17784 17783 17786 17787     9 
17784 17783 17786 17788     9 
17784 17783 17786 17789     9 
17785 17783 17786 17787     9 
17785 17783 17786 17788     9 
17785 17783 17786 17789     9 
17783 17786 17789 17790     9 
17783 17786 17789 17791     9 
17783 17786 17789 17792     9 
17787 17786 17789 17790     9 
17787 17786 17789 17791     9 
17787 17786 17789 17792     9 
17788 17786 17789 17790     9 
17788 17786 17789 17791     9 
17788 17786 17789 17792     9 
17786 17789 17792 17793     9 
17786 17789 17792 17794     9 
17786 17789 17792 17795     9 
17790 17789 17792 17793     9 
17790 17789 17792 17794     9 
17790 17789 17792 17795     9 
17791 17789 17792 17793     9 
17791 17789 17792 17794     9 
17791 17789 17792 17795     9 
17789 17792 17795 17796     9 
17789 17792 17795 17797     9 
17789 17792 17795 17798     9 
17793 17792 17795 17796     9 
17793 17792 17795 17797     9 
17793 17792 17795 17798     9 
17794 17792 17795 17796     9 
17794 17792 17795 17797     9 
17794 17792 17795 17798     9 
17792 17795 17798 17799     9 
17792 17795 17798 17800     9 
17792 17795 17798 17801     9 
17796 17795 17798 17799     9 
17796 17795 17798 17800     9 
17796 17795 17798 17801     9 
17797 17795 17798 17799     9 
17797 17795 17798 17800     9 
17797 17795 17798 17801     9 
17795 17798 17801 17802     9 
17795 17798 17801 17803     9 
17795 17798 17801 17804     9 
17799 17798 17801 17802     9 
17799 17798 17801 17803     9 
17799 17798 17801 17804     9 
17800 17798 17801 17802     9 
17800 17798 17801 17803     9 
17800 17798 17801 17804     9 
17798 17801 17804 17805     9 
17798 17801 17804 17806     9 
17798 17801 17804 17807     9 
17802 17801 17804 17805     9 
17802 17801 17804 17806     9 
17802 17801 17804 17807     9 
17803 17801 17804 17805     9 
17803 17801 17804 17806     9 
17803 17801 17804 17807     9 
17801 17804 17807 17808     9 
17801 17804 17807 17809     9 
17801 17804 17807 17810     9 
17805 17804 17807 17808     9 
17805 17804 17807 17809     9 
17805 17804 17807 17810     9 
17806 17804 17807 17808     9 
17806 17804 17807 17809     9 
17806 17804 17807 17810     9 
17804 17807 17810 17811     9 
17804 17807 17810 17812     9 
17804 17807 17810 17813     9 
17808 17807 17810 17811     9 
17808 17807 17810 17812     9 
17808 17807 17810 17813     9 
17809 17807 17810 17811     9 
17809 17807 17810 17812     9 
17809 17807 17810 17813     9 
17807 17810 17813 17814     9 
17807 17810 17813 17815     9 
17807 17810 17813 17816     9 
17811 17810 17813 17814     9 
17811 17810 17813 17815     9 
17811 17810 17813 17816     9 
17812 17810 17813 17814     9 
17812 17810 17813 17815     9 
17812 17810 17813 17816     9 
17810 17813 17816 17817     9 
17810 17813 17816 17818     9 
17810 17813 17816 17819     9 
17814 17813 17816 17817     9 
17814 17813 17816 17818     9 
17814 17813 17816 17819     9 
17815 17813 17816 17817     9 
17815 17813 17816 17818     9 
17815 17813 17816 17819     9 
17813 17816 17819 17820     9 
17813 17816 17819 17821     9 
17813 17816 17819 17822     9 
17817 17816 17819 17820     9 
17817 17816 17819 17821     9 
17817 17816 17819 17822     9 
17818 17816 17819 17820     9 
17818 17816 17819 17821     9 
17818 17816 17819 17822     9 
17827 17823 17824 17825     9 
17827 17823 17824 17826     9 
17827 17823 17824 17839     9 
17831 17823 17824 17825     9 
17831 17823 17824 17826     9 
17831 17823 17824 17839     9 
17835 17823 17824 17825     9 
17835 17823 17824 17826     9 
17835 17823 17824 17839     9 
17824 17823 17827 17828     9 
17824 17823 17827 17829     9 
17824 17823 17827 17830     9 
17831 17823 17827 17828     9 
17831 17823 17827 17829     9 
17831 17823 17827 17830     9 
17835 17823 17827 17828     9 
17835 17823 17827 17829     9 
17835 17823 17827 17830     9 
17824 17823 17831 17832     9 
17824 17823 17831 17833     9 
17824 17823 17831 17834     9 
17827 17823 17831 17832     9 
17827 17823 17831 17833     9 
17827 17823 17831 17834     9 
17835 17823 17831 17832     9 
17835 17823 17831 17833     9 
17835 17823 17831 17834     9 
17824 17823 17835 17836     9 
17824 17823 17835 17837     9 
17824 17823 17835 17838     9 
17827 17823 17835 17836     9 
17827 17823 17835 17837     9 
17827 17823 17835 17838     9 
17831 17823 17835 17836     9 
17831 17823 17835 17837     9 
17831 17823 17835 17838     9 
17823 17824 17839 17840     9 
17823 17824 17839 17841     9 
17823 17824 17839 17845     9 
17825 17824 17839 17840     9 
17825 17824 17839 17841     9 
17825 17824 17839 17845     9 
17826 17824 17839 17840     9 
17826 17824 17839 17841     9 
17826 17824 17839 17845     9 
17824 17839 17845 17842     9 
17840 17839 17845 17842     9 
17841 17839 17845 17842     9 
17843 17842 17845 17839     9 
17844 17842 17845 17839     9 
17846 17842 17845 17839     9 
17843 17842 17846 17847     9 
17844 17842 17846 17847     9 
17845 17842 17846 17847     9 
17842 17846 17847 17848     9 
17842 17846 17847 17849     9 
17842 17846 17847 17850     9 
17846 17847 17850 17851     9 
17846 17847 17850 17852     9 
17846 17847 17850 17858     9 
17848 17847 17850 17851     9 
17848 17847 17850 17852     9 
17848 17847 17850 17858     9 
17849 17847 17850 17851     9 
17849 17847 17850 17852     9 
17849 17847 17850 17858     9 
17847 17850 17852 17853     9 
17851 17850 17852 17853     9 
17858 17850 17852 17853     9 
17847 17850 17858 17859     9 
17847 17850 17858 17860     9 
17847 17850 17858 17861     9 
17851 17850 17858 17859     9 
17851 17850 17858 17860     9 
17851 17850 17858 17861     9 
17852 17850 17858 17859     9 
17852 17850 17858 17860     9 
17852 17850 17858 17861     9 
17850 17852 17853 17854     9 
17850 17852 17853 17855     9 
17852 17853 17855 17856     9 
17852 17853 17855 17857     9 
17852 17853 17855 17867     9 
17854 17853 17855 17856     9 
17854 17853 17855 17857     9 
17854 17853 17855 17867     9 
17853 17855 17867 17868     9 
17853 17855 17867 17869     9 
17853 17855 17867 17870     9 
17856 17855 17867 17868     9 
17856 17855 17867 17869     9 
17856 17855 17867 17870     9 
17857 17855 17867 17868     9 
17857 17855 17867 17869     9 
17857 17855 17867 17870     9 
17850 17858 17861 17862     9 
17859 17858 17861 17862     9 
17860 17858 17861 17862     9 
17858 17861 17862 17863     9 
17858 17861 17862 17864     9 
17861 17862 17864 17865     9 
17861 17862 17864 17866     9 
17861 17862 17864 17914     9 
17863 17862 17864 17865     9 
17863 17862 17864 17866     9 
17863 17862 17864 17914     9 
17862 17864 17914 17915     9 
17862 17864 17914 17916     9 
17862 17864 17914 17917     9 
17865 17864 17914 17915     9 
17865 17864 17914 17916     9 
17865 17864 17914 17917     9 
17866 17864 17914 17915     9 
17866 17864 17914 17916     9 
17866 17864 17914 17917     9 
17855 17867 17870 17871     9 
17855 17867 17870 17872     9 
17855 17867 17870 17873     9 
17868 17867 17870 17871     9 
17868 17867 17870 17872     9 
17868 17867 17870 17873     9 
17869 17867 17870 17871     9 
17869 17867 17870 17872     9 
17869 17867 17870 17873     9 
17867 17870 17873 17874     9 
17867 17870 17873 17875     9 
17867 17870 17873 17876     9 
17871 17870 17873 17874     9 
17871 17870 17873 17875     9 
17871 17870 17873 17876     9 
17872 17870 17873 17874     9 
17872 17870 17873 17875     9 
17872 17870 17873 17876     9 
17870 17873 17876 17877     9 
17870 17873 17876 17878     9 
17870 17873 17876 17879     9 
17874 17873 17876 17877     9 
17874 17873 17876 17878     9 
17874 17873 17876 17879     9 
17875 17873 17876 17877     9 
17875 17873 17876 17878     9 
17875 17873 17876 17879     9 
17873 17876 17879 17880     9 
17873 17876 17879 17881     9 
17873 17876 17879 17882     9 
17877 17876 17879 17880     9 
17877 17876 17879 17881     9 
17877 17876 17879 17882     9 
17878 17876 17879 17880     9 
17878 17876 17879 17881     9 
17878 17876 17879 17882     9 
17876 17879 17882 17883     9 
17876 17879 17882 17884     9 
17876 17879 17882 17885     9 
17880 17879 17882 17883     9 
17880 17879 17882 17884     9 
17880 17879 17882 17885     9 
17881 17879 17882 17883     9 
17881 17879 17882 17884     9 
17881 17879 17882 17885     9 
17879 17882 17885 17886     9 
17879 17882 17885 17887     9 
17883 17882 17885 17886     9 
17883 17882 17885 17887     9 
17884 17882 17885 17886     9 
17884 17882 17885 17887     9 
17882 17885 17887 17888     9 
17882 17885 17887 17889     9 
17886 17885 17887 17888     9 
17886 17885 17887 17889     9 
17885 17887 17889 17890     9 
17885 17887 17889 17891     9 
17885 17887 17889 17892     9 
17888 17887 17889 17890     9 
17888 17887 17889 17891     9 
17888 17887 17889 17892     9 
17887 17889 17892 17893     9 
17887 17889 17892 17894     9 
17887 17889 17892 17895     9 
17890 17889 17892 17893     9 
17890 17889 17892 17894     9 
17890 17889 17892 17895     9 
17891 17889 17892 17893     9 
17891 17889 17892 17894     9 
17891 17889 17892 17895     9 
17889 17892 17895 17896     9 
17889 17892 17895 17897     9 
17889 17892 17895 17898     9 
17893 17892 17895 17896     9 
17893 17892 17895 17897     9 
17893 17892 17895 17898     9 
17894 17892 17895 17896     9 
17894 17892 17895 17897     9 
17894 17892 17895 17898     9 
17892 17895 17898 17899     9 
17892 17895 17898 17900     9 
17892 17895 17898 17901     9 
17896 17895 17898 17899     9 
17896 17895 17898 17900     9 
17896 17895 17898 17901     9 
17897 17895 17898 17899     9 
17897 17895 17898 17900     9 
17897 17895 17898 17901     9 
17895 17898 17901 17902     9 
17895 17898 17901 17903     9 
17895 17898 17901 17904     9 
17899 17898 17901 17902     9 
17899 17898 17901 17903     9 
17899 17898 17901 17904     9 
17900 17898 17901 17902     9 
17900 17898 17901 17903     9 
17900 17898 17901 17904     9 
17898 17901 17904 17905     9 
17898 17901 17904 17906     9 
17898 17901 17904 17907     9 
17902 17901 17904 17905     9 
17902 17901 17904 17906     9 
17902 17901 17904 17907     9 
17903 17901 17904 17905     9 
17903 17901 17904 17906     9 
17903 17901 17904 17907     9 
17901 17904 17907 17908     9 
17901 17904 17907 17909     9 
17901 17904 17907 17910     9 
17905 17904 17907 17908     9 
17905 17904 17907 17909     9 
17905 17904 17907 17910     9 
17906 17904 17907 17908     9 
17906 17904 17907 17909     9 
17906 17904 17907 17910     9 
17904 17907 17910 17911     9 
17904 17907 17910 17912     9 
17904 17907 17910 17913     9 
17908 17907 17910 17911     9 
17908 17907 17910 17912     9 
17908 17907 17910 17913     9 
17909 17907 17910 17911     9 
17909 17907 17910 17912     9 
17909 17907 17910 17913     9 
17864 17914 17917 17918     9 
17864 17914 17917 17919     9 
17864 17914 17917 17920     9 
17915 17914 17917 17918     9 
17915 17914 17917 17919     9 
17915 17914 17917 17920     9 
17916 17914 17917 17918     9 
17916 17914 17917 17919     9 
17916 17914 17917 17920     9 
17914 17917 17920 17921     9 
17914 17917 17920 17922     9 
17914 17917 17920 17923     9 
17918 17917 17920 17921     9 
17918 17917 17920 17922     9 
17918 17917 17920 17923     9 
17919 17917 17920 17921     9 
17919 17917 17920 17922     9 
17919 17917 17920 17923     9 
17917 17920 17923 17924     9 
17917 17920 17923 17925     9 
17917 17920 17923 17926     9 
17921 17920 17923 17924     9 
17921 17920 17923 17925     9 
17921 17920 17923 17926     9 
17922 17920 17923 17924     9 
17922 17920 17923 17925     9 
17922 17920 17923 17926     9 
17920 17923 17926 17927     9 
17920 17923 17926 17928     9 
17920 17923 17926 17929     9 
17924 17923 17926 17927     9 
17924 17923 17926 17928     9 
17924 17923 17926 17929     9 
17925 17923 17926 17927     9 
17925 17923 17926 17928     9 
17925 17923 17926 17929     9 
17923 17926 17929 17930     9 
17923 17926 17929 17931     9 
17923 17926 17929 17932     9 
17927 17926 17929 17930     9 
17927 17926 17929 17931     9 
17927 17926 17929 17932     9 
17928 17926 17929 17930     9 
17928 17926 17929 17931     9 
17928 17926 17929 17932     9 
17926 17929 17932 17933     9 
17926 17929 17932 17934     9 
17926 17929 17932 17935     9 
17930 17929 17932 17933     9 
17930 17929 17932 17934     9 
17930 17929 17932 17935     9 
17931 17929 17932 17933     9 
17931 17929 17932 17934     9 
17931 17929 17932 17935     9 
17929 17932 17935 17936     9 
17929 17932 17935 17937     9 
17929 17932 17935 17938     9 
17933 17932 17935 17936     9 
17933 17932 17935 17937     9 
17933 17932 17935 17938     9 
17934 17932 17935 17936     9 
17934 17932 17935 17937     9 
17934 17932 17935 17938     9 
17932 17935 17938 17939     9 
17932 17935 17938 17940     9 
17932 17935 17938 17941     9 
17936 17935 17938 17939     9 
17936 17935 17938 17940     9 
17936 17935 17938 17941     9 
17937 17935 17938 17939     9 
17937 17935 17938 17940     9 
17937 17935 17938 17941     9 
17935 17938 17941 17942     9 
17935 17938 17941 17943     9 
17935 17938 17941 17944     9 
17939 17938 17941 17942     9 
17939 17938 17941 17943     9 
17939 17938 17941 17944     9 
17940 17938 17941 17942     9 
17940 17938 17941 17943     9 
17940 17938 17941 17944     9 
17938 17941 17944 17945     9 
17938 17941 17944 17946     9 
17938 17941 17944 17947     9 
17942 17941 17944 17945     9 
17942 17941 17944 17946     9 
17942 17941 17944 17947     9 
17943 17941 17944 17945     9 
17943 17941 17944 17946     9 
17943 17941 17944 17947     9 
17941 17944 17947 17948     9 
17941 17944 17947 17949     9 
17941 17944 17947 17950     9 
17945 17944 17947 17948     9 
17945 17944 17947 17949     9 
17945 17944 17947 17950     9 
17946 17944 17947 17948     9 
17946 17944 17947 17949     9 
17946 17944 17947 17950     9 
17944 17947 17950 17951     9 
17944 17947 17950 17952     9 
17944 17947 17950 17953     9 
17948 17947 17950 17951     9 
17948 17947 17950 17952     9 
17948 17947 17950 17953     9 
17949 17947 17950 17951     9 
17949 17947 17950 17952     9 
17949 17947 17950 17953     9 
17947 17950 17953 17954     9 
17947 17950 17953 17955     9 
17947 17950 17953 17956     9 
17951 17950 17953 17954     9 
17951 17950 17953 17955     9 
17951 17950 17953 17956     9 
17952 17950 17953 17954     9 
17952 17950 17953 17955     9 
17952 17950 17953 17956     9 
17961 17957 17958 17959     9 
17961 17957 17958 17960     9 
17961 17957 17958 17973     9 
17965 17957 17958 17959     9 
17965 17957 17958 17960     9 
17965 17957 17958 17973     9 
17969 17957 17958 17959     9 
17969 17957 17958 17960     9 
17969 17957 17958 17973     9 
17958 17957 17961 17962     9 
17958 17957 17961 17963     9 
17958 17957 17961 17964     9 
17965 17957 17961 17962     9 
17965 17957 17961 17963     9 
17965 17957 17961 17964     9 
17969 17957 17961 17962     9 
17969 17957 17961 17963     9 
17969 17957 17961 17964     9 
17958 17957 17965 17966     9 
17958 17957 17965 17967     9 
17958 17957 17965 17968     9 
17961 17957 17965 17966     9 
17961 17957 17965 17967     9 
17961 17957 17965 17968     9 
17969 17957 17965 17966     9 
17969 17957 17965 17967     9 
17969 17957 17965 17968     9 
17958 17957 17969 17970     9 
17958 17957 17969 17971     9 
17958 17957 17969 17972     9 
17961 17957 17969 17970     9 
17961 17957 17969 17971     9 
17961 17957 17969 17972     9 
17965 17957 17969 17970     9 
17965 17957 17969 17971     9 
17965 17957 17969 17972     9 
17957 17958 17973 17974     9 
17957 17958 17973 17975     9 
17957 17958 17973 17979     9 
17959 17958 17973 17974     9 
17959 17958 17973 17975     9 
17959 17958 17973 17979     9 
17960 17958 17973 17974     9 
17960 17958 17973 17975     9 
17960 17958 17973 17979     9 
17958 17973 17979 17976     9 
17974 17973 17979 17976     9 
17975 17973 17979 17976     9 
17977 17976 17979 17973     9 
17978 17976 17979 17973     9 
17980 17976 17979 17973     9 
17977 17976 17980 17981     9 
17978 17976 17980 17981     9 
17979 17976 17980 17981     9 
17976 17980 17981 17982     9 
17976 17980 17981 17983     9 
17976 17980 17981 17984     9 
17980 17981 17984 17985     9 
17980 17981 17984 17986     9 
17980 17981 17984 17992     9 
17982 17981 17984 17985     9 
17982 17981 17984 17986     9 
17982 17981 17984 17992     9 
17983 17981 17984 17985     9 
17983 17981 17984 17986     9 
17983 17981 17984 17992     9 
17981 17984 17986 17987     9 
17985 17984 17986 17987     9 
17992 17984 17986 17987     9 
17981 17984 17992 17993     9 
17981 17984 17992 17994     9 
17981 17984 17992 17995     9 
17985 17984 17992 17993     9 
17985 17984 17992 17994     9 
17985 17984 17992 17995     9 
17986 17984 17992 17993     9 
17986 17984 17992 17994     9 
17986 17984 17992 17995     9 
17984 17986 17987 17988     9 
17984 17986 17987 17989     9 
17986 17987 17989 17990     9 
17986 17987 17989 17991     9 
17986 17987 17989 18001     9 
17988 17987 17989 17990     9 
17988 17987 17989 17991     9 
17988 17987 17989 18001     9 
17987 17989 18001 18002     9 
17987 17989 18001 18003     9 
17987 17989 18001 18004     9 
17990 17989 18001 18002     9 
17990 17989 18001 18003     9 
17990 17989 18001 18004     9 
17991 17989 18001 18002     9 
17991 17989 18001 18003     9 
17991 17989 18001 18004     9 
17984 17992 17995 17996     9 
17993 17992 17995 17996     9 
17994 17992 17995 17996     9 
17992 17995 17996 17997     9 
17992 17995 17996 17998     9 
17995 17996 17998 17999     9 
17995 17996 17998 18000     9 
17995 17996 17998 18048     9 
17997 17996 17998 17999     9 
17997 17996 17998 18000     9 
17997 17996 17998 18048     9 
17996 17998 18048 18049     9 
17996 17998 18048 18050     9 
17996 17998 18048 18051     9 
17999 17998 18048 18049     9 
17999 17998 18048 18050     9 
17999 17998 18048 18051     9 
18000 17998 18048 18049     9 
18000 17998 18048 18050     9 
18000 17998 18048 18051     9 
17989 18001 18004 18005     9 
17989 18001 18004 18006     9 
17989 18001 18004 18007     9 
18002 18001 18004 18005     9 
18002 18001 18004 18006     9 
18002 18001 18004 18007     9 
18003 18001 18004 18005     9 
18003 18001 18004 18006     9 
18003 18001 18004 18007     9 
18001 18004 18007 18008     9 
18001 18004 18007 18009     9 
18001 18004 18007 18010     9 
18005 18004 18007 18008     9 
18005 18004 18007 18009     9 
18005 18004 18007 18010     9 
18006 18004 18007 18008     9 
18006 18004 18007 18009     9 
18006 18004 18007 18010     9 
18004 18007 18010 18011     9 
18004 18007 18010 18012     9 
18004 18007 18010 18013     9 
18008 18007 18010 18011     9 
18008 18007 18010 18012     9 
18008 18007 18010 18013     9 
18009 18007 18010 18011     9 
18009 18007 18010 18012     9 
18009 18007 18010 18013     9 
18007 18010 18013 18014     9 
18007 18010 18013 18015     9 
18007 18010 18013 18016     9 
18011 18010 18013 18014     9 
18011 18010 18013 18015     9 
18011 18010 18013 18016     9 
18012 18010 18013 18014     9 
18012 18010 18013 18015     9 
18012 18010 18013 18016     9 
18010 18013 18016 18017     9 
18010 18013 18016 18018     9 
18010 18013 18016 18019     9 
18014 18013 18016 18017     9 
18014 18013 18016 18018     9 
18014 18013 18016 18019     9 
18015 18013 18016 18017     9 
18015 18013 18016 18018     9 
18015 18013 18016 18019     9 
18013 18016 18019 18020     9 
18013 18016 18019 18021     9 
18017 18016 18019 18020     9 
18017 18016 18019 18021     9 
18018 18016 18019 18020     9 
18018 18016 18019 18021     9 
18016 18019 18021 18022     9 
18016 18019 18021 18023     9 
18020 18019 18021 18022     9 
18020 18019 18021 18023     9 
18019 18021 18023 18024     9 
18019 18021 18023 18025     9 
18019 18021 18023 18026     9 
18022 18021 18023 18024     9 
18022 18021 18023 18025     9 
18022 18021 18023 18026     9 
18021 18023 18026 18027     9 
18021 18023 18026 18028     9 
18021 18023 18026 18029     9 
18024 18023 18026 18027     9 
18024 18023 18026 18028     9 
18024 18023 18026 18029     9 
18025 18023 18026 18027     9 
18025 18023 18026 18028     9 
18025 18023 18026 18029     9 
18023 18026 18029 18030     9 
18023 18026 18029 18031     9 
18023 18026 18029 18032     9 
18027 18026 18029 18030     9 
18027 18026 18029 18031     9 
18027 18026 18029 18032     9 
18028 18026 18029 18030     9 
18028 18026 18029 18031     9 
18028 18026 18029 18032     9 
18026 18029 18032 18033     9 
18026 18029 18032 18034     9 
18026 18029 18032 18035     9 
18030 18029 18032 18033     9 
18030 18029 18032 18034     9 
18030 18029 18032 18035     9 
18031 18029 18032 18033     9 
18031 18029 18032 18034     9 
18031 18029 18032 18035     9 
18029 18032 18035 18036     9 
18029 18032 18035 18037     9 
18029 18032 18035 18038     9 
18033 18032 18035 18036     9 
18033 18032 18035 18037     9 
18033 18032 18035 18038     9 
18034 18032 18035 18036     9 
18034 18032 18035 18037     9 
18034 18032 18035 18038     9 
18032 18035 18038 18039     9 
18032 18035 18038 18040     9 
18032 18035 18038 18041     9 
18036 18035 18038 18039     9 
18036 18035 18038 18040     9 
18036 18035 18038 18041     9 
18037 18035 18038 18039     9 
18037 18035 18038 18040     9 
18037 18035 18038 18041     9 
18035 18038 18041 18042     9 
18035 18038 18041 18043     9 
18035 18038 18041 18044     9 
18039 18038 18041 18042     9 
18039 18038 18041 18043     9 
18039 18038 18041 18044     9 
18040 18038 18041 18042     9 
18040 18038 18041 18043     9 
18040 18038 18041 18044     9 
18038 18041 18044 18045     9 
18038 18041 18044 18046     9 
18038 18041 18044 18047     9 
18042 18041 18044 18045     9 
18042 18041 18044 18046     9 
18042 18041 18044 18047     9 
18043 18041 18044 18045     9 
18043 18041 18044 18046     9 
18043 18041 18044 18047     9 
17998 18048 18051 18052     9 
17998 18048 18051 18053     9 
17998 18048 18051 18054     9 
18049 18048 18051 18052     9 
18049 18048 18051 18053     9 
18049 18048 18051 18054     9 
18050 18048 18051 18052     9 
18050 18048 18051 18053     9 
18050 18048 18051 18054     9 
18048 18051 18054 18055     9 
18048 18051 18054 18056     9 
18048 18051 18054 18057     9 
18052 18051 18054 18055     9 
18052 18051 18054 18056     9 
18052 18051 18054 18057     9 
18053 18051 18054 18055     9 
18053 18051 18054 18056     9 
18053 18051 18054 18057     9 
18051 18054 18057 18058     9 
18051 18054 18057 18059     9 
18051 18054 18057 18060     9 
18055 18054 18057 18058     9 
18055 18054 18057 18059     9 
18055 18054 18057 18060     9 
18056 18054 18057 18058     9 
18056 18054 18057 18059     9 
18056 18054 18057 18060     9 
18054 18057 18060 18061     9 
18054 18057 18060 18062     9 
18054 18057 18060 18063     9 
18058 18057 18060 18061     9 
18058 18057 18060 18062     9 
18058 18057 18060 18063     9 
18059 18057 18060 18061     9 
18059 18057 18060 18062     9 
18059 18057 18060 18063     9 
18057 18060 18063 18064     9 
18057 18060 18063 18065     9 
18057 18060 18063 18066     9 
18061 18060 18063 18064     9 
18061 18060 18063 18065     9 
18061 18060 18063 18066     9 
18062 18060 18063 18064     9 
18062 18060 18063 18065     9 
18062 18060 18063 18066     9 
18060 18063 18066 18067     9 
18060 18063 18066 18068     9 
18060 18063 18066 18069     9 
18064 18063 18066 18067     9 
18064 18063 18066 18068     9 
18064 18063 18066 18069     9 
18065 18063 18066 18067     9 
18065 18063 18066 18068     9 
18065 18063 18066 18069     9 
18063 18066 18069 18070     9 
18063 18066 18069 18071     9 
18063 18066 18069 18072     9 
18067 18066 18069 18070     9 
18067 18066 18069 18071     9 
18067 18066 18069 18072     9 
18068 18066 18069 18070     9 
18068 18066 18069 18071     9 
18068 18066 18069 18072     9 
18066 18069 18072 18073     9 
18066 18069 18072 18074     9 
18066 18069 18072 18075     9 
18070 18069 18072 18073     9 
18070 18069 18072 18074     9 
18070 18069 18072 18075     9 
18071 18069 18072 18073     9 
18071 18069 18072 18074     9 
18071 18069 18072 18075     9 
18069 18072 18075 18076     9 
18069 18072 18075 18077     9 
18069 18072 18075 18078     9 
18073 18072 18075 18076     9 
18073 18072 18075 18077     9 
18073 18072 18075 18078     9 
18074 18072 18075 18076     9 
18074 18072 18075 18077     9 
18074 18072 18075 18078     9 
18072 18075 18078 18079     9 
18072 18075 18078 18080     9 
18072 18075 18078 18081     9 
18076 18075 18078 18079     9 
18076 18075 18078 18080     9 
18076 18075 18078 18081     9 
18077 18075 18078 18079     9 
18077 18075 18078 18080     9 
18077 18075 18078 18081     9 
18075 18078 18081 18082     9 
18075 18078 18081 18083     9 
18075 18078 18081 18084     9 
18079 18078 18081 18082     9 
18079 18078 18081 18083     9 
18079 18078 18081 18084     9 
18080 18078 18081 18082     9 
18080 18078 18081 18083     9 
18080 18078 18081 18084     9 
18078 18081 18084 18085     9 
18078 18081 18084 18086     9 
18078 18081 18084 18087     9 
18082 18081 18084 18085     9 
18082 18081 18084 18086     9 
18082 18081 18084 18087     9 
18083 18081 18084 18085     9 
18083 18081 18084 18086     9 
18083 18081 18084 18087     9 
18081 18084 18087 18088     9 
18081 18084 18087 18089     9 
18081 18084 18087 18090     9 
18085 18084 18087 18088     9 
18085 18084 18087 18089     9 
18085 18084 18087 18090     9 
18086 18084 18087 18088     9 
18086 18084 18087 18089     9 
18086 18084 18087 18090     9 
18095 18091 18092 18093     9 
18095 18091 18092 18094     9 
18095 18091 18092 18107     9 
18099 18091 18092 18093     9 
18099 18091 18092 18094     9 
18099 18091 18092 18107     9 
18103 18091 18092 18093     9 
18103 18091 18092 18094     9 
18103 18091 18092 18107     9 
18092 18091 18095 18096     9 
18092 18091 18095 18097     9 
18092 18091 18095 18098     9 
18099 18091 18095 18096     9 
18099 18091 18095 18097     9 
18099 18091 18095 18098     9 
18103 18091 18095 18096     9 
18103 18091 18095 18097     9 
18103 18091 18095 18098     9 
18092 18091 18099 18100     9 
18092 18091 18099 18101     9 
18092 18091 18099 18102     9 
18095 18091 18099 18100     9 
18095 18091 18099 18101     9 
18095 18091 18099 18102     9 
18103 18091 18099 18100     9 
18103 18091 18099 18101     9 
18103 18091 18099 18102     9 
18092 18091 18103 18104     9 
18092 18091 18103 18105     9 
18092 18091 18103 18106     9 
18095 18091 18103 18104     9 
18095 18091 18103 18105     9 
18095 18091 18103 18106     9 
18099 18091 18103 18104     9 
18099 18091 18103 18105     9 
18099 18091 18103 18106     9 
18091 18092 18107 18108     9 
18091 18092 18107 18109     9 
18091 18092 18107 18113     9 
18093 18092 18107 18108     9 
18093 18092 18107 18109     9 
18093 18092 18107 18113     9 
18094 18092 18107 18108     9 
18094 18092 18107 18109     9 
18094 18092 18107 18113     9 
18092 18107 18113 18110     9 
18108 18107 18113 18110     9 
18109 18107 18113 18110     9 
18111 18110 18113 18107     9 
18112 18110 18113 18107     9 
18114 18110 18113 18107     9 
18111 18110 18114 18115     9 
18112 18110 18114 18115     9 
18113 18110 18114 18115     9 
18110 18114 18115 18116     9 
18110 18114 18115 18117     9 
18110 18114 18115 18118     9 
18114 18115 18118 18119     9 
18114 18115 18118 18120     9 
18114 18115 18118 18126     9 
18116 18115 18118 18119     9 
18116 18115 18118 18120     9 
18116 18115 18118 18126     9 
18117 18115 18118 18119     9 
18117 18115 18118 18120     9 
18117 18115 18118 18126     9 
18115 18118 18120 18121     9 
18119 18118 18120 18121     9 
18126 18118 18120 18121     9 
18115 18118 18126 18127     9 
18115 18118 18126 18128     9 
18115 18118 18126 18129     9 
18119 18118 18126 18127     9 
18119 18118 18126 18128     9 
18119 18118 18126 18129     9 
18120 18118 18126 18127     9 
18120 18118 18126 18128     9 
18120 18118 18126 18129     9 
18118 18120 18121 18122     9 
18118 18120 18121 18123     9 
18120 18121 18123 18124     9 
18120 18121 18123 18125     9 
18120 18121 18123 18135     9 
18122 18121 18123 18124     9 
18122 18121 18123 18125     9 
18122 18121 18123 18135     9 
18121 18123 18135 18136     9 
18121 18123 18135 18137     9 
18121 18123 18135 18138     9 
18124 18123 18135 18136     9 
18124 18123 18135 18137     9 
18124 18123 18135 18138     9 
18125 18123 18135 18136     9 
18125 18123 18135 18137     9 
18125 18123 18135 18138     9 
18118 18126 18129 18130     9 
18127 18126 18129 18130     9 
18128 18126 18129 18130     9 
18126 18129 18130 18131     9 
18126 18129 18130 18132     9 
18129 18130 18132 18133     9 
18129 18130 18132 18134     9 
18129 18130 18132 18182     9 
18131 18130 18132 18133     9 
18131 18130 18132 18134     9 
18131 18130 18132 18182     9 
18130 18132 18182 18183     9 
18130 18132 18182 18184     9 
18130 18132 18182 18185     9 
18133 18132 18182 18183     9 
18133 18132 18182 18184     9 
18133 18132 18182 18185     9 
18134 18132 18182 18183     9 
18134 18132 18182 18184     9 
18134 18132 18182 18185     9 
18123 18135 18138 18139     9 
18123 18135 18138 18140     9 
18123 18135 18138 18141     9 
18136 18135 18138 18139     9 
18136 18135 18138 18140     9 
18136 18135 18138 18141     9 
18137 18135 18138 18139     9 
18137 18135 18138 18140     9 
18137 18135 18138 18141     9 
18135 18138 18141 18142     9 
18135 18138 18141 18143     9 
18135 18138 18141 18144     9 
18139 18138 18141 18142     9 
18139 18138 18141 18143     9 
18139 18138 18141 18144     9 
18140 18138 18141 18142     9 
18140 18138 18141 18143     9 
18140 18138 18141 18144     9 
18138 18141 18144 18145     9 
18138 18141 18144 18146     9 
18138 18141 18144 18147     9 
18142 18141 18144 18145     9 
18142 18141 18144 18146     9 
18142 18141 18144 18147     9 
18143 18141 18144 18145     9 
18143 18141 18144 18146     9 
18143 18141 18144 18147     9 
18141 18144 18147 18148     9 
18141 18144 18147 18149     9 
18141 18144 18147 18150     9 
18145 18144 18147 18148     9 
18145 18144 18147 18149     9 
18145 18144 18147 18150     9 
18146 18144 18147 18148     9 
18146 18144 18147 18149     9 
18146 18144 18147 18150     9 
18144 18147 18150 18151     9 
18144 18147 18150 18152     9 
18144 18147 18150 18153     9 
18148 18147 18150 18151     9 
18148 18147 18150 18152     9 
18148 18147 18150 18153     9 
18149 18147 18150 18151     9 
18149 18147 18150 18152     9 
18149 18147 18150 18153     9 
18147 18150 18153 18154     9 
18147 18150 18153 18155     9 
18151 18150 18153 18154     9 
18151 18150 18153 18155     9 
18152 18150 18153 18154     9 
18152 18150 18153 18155     9 
18150 18153 18155 18156     9 
18150 18153 18155 18157     9 
18154 18153 18155 18156     9 
18154 18153 18155 18157     9 
18153 18155 18157 18158     9 
18153 18155 18157 18159     9 
18153 18155 18157 18160     9 
18156 18155 18157 18158     9 
18156 18155 18157 18159     9 
18156 18155 18157 18160     9 
18155 18157 18160 18161     9 
18155 18157 18160 18162     9 
18155 18157 18160 18163     9 
18158 18157 18160 18161     9 
18158 18157 18160 18162     9 
18158 18157 18160 18163     9 
18159 18157 18160 18161     9 
18159 18157 18160 18162     9 
18159 18157 18160 18163     9 
18157 18160 18163 18164     9 
18157 18160 18163 18165     9 
18157 18160 18163 18166     9 
18161 18160 18163 18164     9 
18161 18160 18163 18165     9 
18161 18160 18163 18166     9 
18162 18160 18163 18164     9 
18162 18160 18163 18165     9 
18162 18160 18163 18166     9 
18160 18163 18166 18167     9 
18160 18163 18166 18168     9 
18160 18163 18166 18169     9 
18164 18163 18166 18167     9 
18164 18163 18166 18168     9 
18164 18163 18166 18169     9 
18165 18163 18166 18167     9 
18165 18163 18166 18168     9 
18165 18163 18166 18169     9 
18163 18166 18169 18170     9 
18163 18166 18169 18171     9 
18163 18166 18169 18172     9 
18167 18166 18169 18170     9 
18167 18166 18169 18171     9 
18167 18166 18169 18172     9 
18168 18166 18169 18170     9 
18168 18166 18169 18171     9 
18168 18166 18169 18172     9 
18166 18169 18172 18173     9 
18166 18169 18172 18174     9 
18166 18169 18172 18175     9 
18170 18169 18172 18173     9 
18170 18169 18172 18174     9 
18170 18169 18172 18175     9 
18171 18169 18172 18173     9 
18171 18169 18172 18174     9 
18171 18169 18172 18175     9 
18169 18172 18175 18176     9 
18169 18172 18175 18177     9 
18169 18172 18175 18178     9 
18173 18172 18175 18176     9 
18173 18172 18175 18177     9 
18173 18172 18175 18178     9 
18174 18172 18175 18176     9 
18174 18172 18175 18177     9 
18174 18172 18175 18178     9 
18172 18175 18178 18179     9 
18172 18175 18178 18180     9 
18172 18175 18178 18181     9 
18176 18175 18178 18179     9 
18176 18175 18178 18180     9 
18176 18175 18178 18181     9 
18177 18175 18178 18179     9 
18177 18175 18178 18180     9 
18177 18175 18178 18181     9 
18132 18182 18185 18186     9 
18132 18182 18185 18187     9 
18132 18182 18185 18188     9 
18183 18182 18185 18186     9 
18183 18182 18185 18187     9 
18183 18182 18185 18188     9 
18184 18182 18185 18186     9 
18184 18182 18185 18187     9 
18184 18182 18185 18188     9 
18182 18185 18188 18189     9 
18182 18185 18188 18190     9 
18182 18185 18188 18191     9 
18186 18185 18188 18189     9 
18186 18185 18188 18190     9 
18186 18185 18188 18191     9 
18187 18185 18188 18189     9 
18187 18185 18188 18190     9 
18187 18185 18188 18191     9 
18185 18188 18191 18192     9 
18185 18188 18191 18193     9 
18185 18188 18191 18194     9 
18189 18188 18191 18192     9 
18189 18188 18191 18193     9 
18189 18188 18191 18194     9 
18190 18188 18191 18192     9 
18190 18188 18191 18193     9 
18190 18188 18191 18194     9 
18188 18191 18194 18195     9 
18188 18191 18194 18196     9 
18188 18191 18194 18197     9 
18192 18191 18194 18195     9 
18192 18191 18194 18196     9 
18192 18191 18194 18197     9 
18193 18191 18194 18195     9 
18193 18191 18194 18196     9 
18193 18191 18194 18197     9 
18191 18194 18197 18198     9 
18191 18194 18197 18199     9 
18191 18194 18197 18200     9 
18195 18194 18197 18198     9 
18195 18194 18197 18199     9 
18195 18194 18197 18200     9 
18196 18194 18197 18198     9 
18196 18194 18197 18199     9 
18196 18194 18197 18200     9 
18194 18197 18200 18201     9 
18194 18197 18200 18202     9 
18194 18197 18200 18203     9 
18198 18197 18200 18201     9 
18198 18197 18200 18202     9 
18198 18197 18200 18203     9 
18199 18197 18200 18201     9 
18199 18197 18200 18202     9 
18199 18197 18200 18203     9 
18197 18200 18203 18204     9 
18197 18200 18203 18205     9 
18197 18200 18203 18206     9 
18201 18200 18203 18204     9 
18201 18200 18203 18205     9 
18201 18200 18203 18206     9 
18202 18200 18203 18204     9 
18202 18200 18203 18205     9 
18202 18200 18203 18206     9 
18200 18203 18206 18207     9 
18200 18203 18206 18208     9 
18200 18203 18206 18209     9 
18204 18203 18206 18207     9 
18204 18203 18206 18208     9 
18204 18203 18206 18209     9 
18205 18203 18206 18207     9 
18205 18203 18206 18208     9 
18205 18203 18206 18209     9 
18203 18206 18209 18210     9 
18203 18206 18209 18211     9 
18203 18206 18209 18212     9 
18207 18206 18209 18210     9 
18207 18206 18209 18211     9 
18207 18206 18209 18212     9 
18208 18206 18209 18210     9 
18208 18206 18209 18211     9 
18208 18206 18209 18212     9 
18206 18209 18212 18213     9 
18206 18209 18212 18214     9 
18206 18209 18212 18215     9 
18210 18209 18212 18213     9 
18210 18209 18212 18214     9 
18210 18209 18212 18215     9 
18211 18209 18212 18213     9 
18211 18209 18212 18214     9 
18211 18209 18212 18215     9 
18209 18212 18215 18216     9 
18209 18212 18215 18217     9 
18209 18212 18215 18218     9 
18213 18212 18215 18216     9 
18213 18212 18215 18217     9 
18213 18212 18215 18218     9 
18214 18212 18215 18216     9 
18214 18212 18215 18217     9 
18214 18212 18215 18218     9 
18212 18215 18218 18219     9 
18212 18215 18218 18220     9 
18212 18215 18218 18221     9 
18216 18215 18218 18219     9 
18216 18215 18218 18220     9 
18216 18215 18218 18221     9 
18217 18215 18218 18219     9 
18217 18215 18218 18220     9 
18217 18215 18218 18221     9 
18215 18218 18221 18222     9 
18215 18218 18221 18223     9 
18215 18218 18221 18224     9 
18219 18218 18221 18222     9 
18219 18218 18221 18223     9 
18219 18218 18221 18224     9 
18220 18218 18221 18222     9 
18220 18218 18221 18223     9 
18220 18218 18221 18224     9 
18229 18225 18226 18227     9 
18229 18225 18226 18228     9 
18229 18225 18226 18241     9 
18233 18225 18226 18227     9 
18233 18225 18226 18228     9 
18233 18225 18226 18241     9 
18237 18225 18226 18227     9 
18237 18225 18226 18228     9 
18237 18225 18226 18241     9 
18226 18225 18229 18230     9 
18226 18225 18229 18231     9 
18226 18225 18229 18232     9 
18233 18225 18229 18230     9 
18233 18225 18229 18231     9 
18233 18225 18229 18232     9 
18237 18225 18229 18230     9 
18237 18225 18229 18231     9 
18237 18225 18229 18232     9 
18226 18225 18233 18234     9 
18226 18225 18233 18235     9 
18226 18225 18233 18236     9 
18229 18225 18233 18234     9 
18229 18225 18233 18235     9 
18229 18225 18233 18236     9 
18237 18225 18233 18234     9 
18237 18225 18233 18235     9 
18237 18225 18233 18236     9 
18226 18225 18237 18238     9 
18226 18225 18237 18239     9 
18226 18225 18237 18240     9 
18229 18225 18237 18238     9 
18229 18225 18237 18239     9 
18229 18225 18237 18240     9 
18233 18225 18237 18238     9 
18233 18225 18237 18239     9 
18233 18225 18237 18240     9 
18225 18226 18241 18242     9 
18225 18226 18241 18243     9 
18225 18226 18241 18247     9 
18227 18226 18241 18242     9 
18227 18226 18241 18243     9 
18227 18226 18241 18247     9 
18228 18226 18241 18242     9 
18228 18226 18241 18243     9 
18228 18226 18241 18247     9 
18226 18241 18247 18244     9 
18242 18241 18247 18244     9 
18243 18241 18247 18244     9 
18245 18244 18247 18241     9 
18246 18244 18247 18241     9 
18248 18244 18247 18241     9 
18245 18244 18248 18249     9 
18246 18244 18248 18249     9 
18247 18244 18248 18249     9 
18244 18248 18249 18250     9 
18244 18248 18249 18251     9 
18244 18248 18249 18252     9 
18248 18249 18252 18253     9 
18248 18249 18252 18254     9 
18248 18249 18252 18260     9 
18250 18249 18252 18253     9 
18250 18249 18252 18254     9 
18250 18249 18252 18260     9 
18251 18249 18252 18253     9 
18251 18249 18252 18254     9 
18251 18249 18252 18260     9 
18249 18252 18254 18255     9 
18253 18252 18254 18255     9 
18260 18252 18254 18255     9 
18249 18252 18260 18261     9 
18249 18252 18260 18262     9 
18249 18252 18260 18263     9 
18253 18252 18260 18261     9 
18253 18252 18260 18262     9 
18253 18252 18260 18263     9 
18254 18252 18260 18261     9 
18254 18252 18260 18262     9 
18254 18252 18260 18263     9 
18252 18254 18255 18256     9 
18252 18254 18255 18257     9 
18254 18255 18257 18258     9 
18254 18255 18257 18259     9 
18254 18255 18257 18269     9 
18256 18255 18257 18258     9 
18256 18255 18257 18259     9 
18256 18255 18257 18269     9 
18255 18257 18269 18270     9 
18255 18257 18269 18271     9 
18255 18257 18269 18272     9 
18258 18257 18269 18270     9 
18258 18257 18269 18271     9 
18258 18257 18269 18272     9 
18259 18257 18269 18270     9 
18259 18257 18269 18271     9 
18259 18257 18269 18272     9 
18252 18260 18263 18264     9 
18261 18260 18263 18264     9 
18262 18260 18263 18264     9 
18260 18263 18264 18265     9 
18260 18263 18264 18266     9 
18263 18264 18266 18267     9 
18263 18264 18266 18268     9 
18263 18264 18266 18316     9 
18265 18264 18266 18267     9 
18265 18264 18266 18268     9 
18265 18264 18266 18316     9 
18264 18266 18316 18317     9 
18264 18266 18316 18318     9 
18264 18266 18316 18319     9 
18267 18266 18316 18317     9 
18267 18266 18316 18318     9 
18267 18266 18316 18319     9 
18268 18266 18316 18317     9 
18268 18266 18316 18318     9 
18268 18266 18316 18319     9 
18257 18269 18272 18273     9 
18257 18269 18272 18274     9 
18257 18269 18272 18275     9 
18270 18269 18272 18273     9 
18270 18269 18272 18274     9 
18270 18269 18272 18275     9 
18271 18269 18272 18273     9 
18271 18269 18272 18274     9 
18271 18269 18272 18275     9 
18269 18272 18275 18276     9 
18269 18272 18275 18277     9 
18269 18272 18275 18278     9 
18273 18272 18275 18276     9 
18273 18272 18275 18277     9 
18273 18272 18275 18278     9 
18274 18272 18275 18276     9 
18274 18272 18275 18277     9 
18274 18272 18275 18278     9 
18272 18275 18278 18279     9 
18272 18275 18278 18280     9 
18272 18275 18278 18281     9 
18276 18275 18278 18279     9 
18276 18275 18278 18280     9 
18276 18275 18278 18281     9 
18277 18275 18278 18279     9 
18277 18275 18278 18280     9 
18277 18275 18278 18281     9 
18275 18278 18281 18282     9 
18275 18278 18281 18283     9 
18275 18278 18281 18284     9 
18279 18278 18281 18282     9 
18279 18278 18281 18283     9 
18279 18278 18281 18284     9 
18280 18278 18281 18282     9 
18280 18278 18281 18283     9 
18280 18278 18281 18284     9 
18278 18281 18284 18285     9 
18278 18281 18284 18286     9 
18278 18281 18284 18287     9 
18282 18281 18284 18285     9 
18282 18281 18284 18286     9 
18282 18281 18284 18287     9 
18283 18281 18284 18285     9 
18283 18281 18284 18286     9 
18283 18281 18284 18287     9 
18281 18284 18287 18288     9 
18281 18284 18287 18289     9 
18285 18284 18287 18288     9 
18285 18284 18287 18289     9 
18286 18284 18287 18288     9 
18286 18284 18287 18289     9 
18284 18287 18289 18290     9 
18284 18287 18289 18291     9 
18288 18287 18289 18290     9 
18288 18287 18289 18291     9 
18287 18289 18291 18292     9 
18287 18289 18291 18293     9 
18287 18289 18291 18294     9 
18290 18289 18291 18292     9 
18290 18289 18291 18293     9 
18290 18289 18291 18294     9 
18289 18291 18294 18295     9 
18289 18291 18294 18296     9 
18289 18291 18294 18297     9 
18292 18291 18294 18295     9 
18292 18291 18294 18296     9 
18292 18291 18294 18297     9 
18293 18291 18294 18295     9 
18293 18291 18294 18296     9 
18293 18291 18294 18297     9 
18291 18294 18297 18298     9 
18291 18294 18297 18299     9 
18291 18294 18297 18300     9 
18295 18294 18297 18298     9 
18295 18294 18297 18299     9 
18295 18294 18297 18300     9 
18296 18294 18297 18298     9 
18296 18294 18297 18299     9 
18296 18294 18297 18300     9 
18294 18297 18300 18301     9 
18294 18297 18300 18302     9 
18294 18297 18300 18303     9 
18298 18297 18300 18301     9 
18298 18297 18300 18302     9 
18298 18297 18300 18303     9 
18299 18297 18300 18301     9 
18299 18297 18300 18302     9 
18299 18297 18300 18303     9 
18297 18300 18303 18304     9 
18297 18300 18303 18305     9 
18297 18300 18303 18306     9 
18301 18300 18303 18304     9 
18301 18300 18303 18305     9 
18301 18300 18303 18306     9 
18302 18300 18303 18304     9 
18302 18300 18303 18305     9 
18302 18300 18303 18306     9 
18300 18303 18306 18307     9 
18300 18303 18306 18308     9 
18300 18303 18306 18309     9 
18304 18303 18306 18307     9 
18304 18303 18306 18308     9 
18304 18303 18306 18309     9 
18305 18303 18306 18307     9 
18305 18303 18306 18308     9 
18305 18303 18306 18309     9 
18303 18306 18309 18310     9 
18303 18306 18309 18311     9 
18303 18306 18309 18312     9 
18307 18306 18309 18310     9 
18307 18306 18309 18311     9 
18307 18306 18309 18312     9 
18308 18306 18309 18310     9 
18308 18306 18309 18311     9 
18308 18306 18309 18312     9 
18306 18309 18312 18313     9 
18306 18309 18312 18314     9 
18306 18309 18312 18315     9 
18310 18309 18312 18313     9 
18310 18309 18312 18314     9 
18310 18309 18312 18315     9 
18311 18309 18312 18313     9 
18311 18309 18312 18314     9 
18311 18309 18312 18315     9 
18266 18316 18319 18320     9 
18266 18316 18319 18321     9 
18266 18316 18319 18322     9 
18317 18316 18319 18320     9 
18317 18316 18319 18321     9 
18317 18316 18319 18322     9 
18318 18316 18319 18320     9 
18318 18316 18319 18321     9 
18318 18316 18319 18322     9 
18316 18319 18322 18323     9 
18316 18319 18322 18324     9 
18316 18319 18322 18325     9 
18320 18319 18322 18323     9 
18320 18319 18322 18324     9 
18320 18319 18322 18325     9 
18321 18319 18322 18323     9 
18321 18319 18322 18324     9 
18321 18319 18322 18325     9 
18319 18322 18325 18326     9 
18319 18322 18325 18327     9 
18319 18322 18325 18328     9 
18323 18322 18325 18326     9 
18323 18322 18325 18327     9 
18323 18322 18325 18328     9 
18324 18322 18325 18326     9 
18324 18322 18325 18327     9 
18324 18322 18325 18328     9 
18322 18325 18328 18329     9 
18322 18325 18328 18330     9 
18322 18325 18328 18331     9 
18326 18325 18328 18329     9 
18326 18325 18328 18330     9 
18326 18325 18328 18331     9 
18327 18325 18328 18329     9 
18327 18325 18328 18330     9 
18327 18325 18328 18331     9 
18325 18328 18331 18332     9 
18325 18328 18331 18333     9 
18325 18328 18331 18334     9 
18329 18328 18331 18332     9 
18329 18328 18331 18333     9 
18329 18328 18331 18334     9 
18330 18328 18331 18332     9 
18330 18328 18331 18333     9 
18330 18328 18331 18334     9 
18328 18331 18334 18335     9 
18328 18331 18334 18336     9 
18328 18331 18334 18337     9 
18332 18331 18334 18335     9 
18332 18331 18334 18336     9 
18332 18331 18334 18337     9 
18333 18331 18334 18335     9 
18333 18331 18334 18336     9 
18333 18331 18334 18337     9 
18331 18334 18337 18338     9 
18331 18334 18337 18339     9 
18331 18334 18337 18340     9 
18335 18334 18337 18338     9 
18335 18334 18337 18339     9 
18335 18334 18337 18340     9 
18336 18334 18337 18338     9 
18336 18334 18337 18339     9 
18336 18334 18337 18340     9 
18334 18337 18340 18341     9 
18334 18337 18340 18342     9 
18334 18337 18340 18343     9 
18338 18337 18340 18341     9 
18338 18337 18340 18342     9 
18338 18337 18340 18343     9 
18339 18337 18340 18341     9 
18339 18337 18340 18342     9 
18339 18337 18340 18343     9 
18337 18340 18343 18344     9 
18337 18340 18343 18345     9 
18337 18340 18343 18346     9 
18341 18340 18343 18344     9 
18341 18340 18343 18345     9 
18341 18340 18343 18346     9 
18342 18340 18343 18344     9 
18342 18340 18343 18345     9 
18342 18340 18343 18346     9 
18340 18343 18346 18347     9 
18340 18343 18346 18348     9 
18340 18343 18346 18349     9 
18344 18343 18346 18347     9 
18344 18343 18346 18348     9 
18344 18343 18346 18349     9 
18345 18343 18346 18347     9 
18345 18343 18346 18348     9 
18345 18343 18346 18349     9 
18343 18346 18349 18350     9 
18343 18346 18349 18351     9 
18343 18346 18349 18352     9 
18347 18346 18349 18350     9 
18347 18346 18349 18351     9 
18347 18346 18349 18352     9 
18348 18346 18349 18350     9 
18348 18346 18349 18351     9 
18348 18346 18349 18352     9 
18346 18349 18352 18353     9 
18346 18349 18352 18354     9 
18346 18349 18352 18355     9 
18350 18349 18352 18353     9 
18350 18349 18352 18354     9 
18350 18349 18352 18355     9 
18351 18349 18352 18353     9 
18351 18349 18352 18354     9 
18351 18349 18352 18355     9 
18349 18352 18355 18356     9 
18349 18352 18355 18357     9 
18349 18352 18355 18358     9 
18353 18352 18355 18356     9 
18353 18352 18355 18357     9 
18353 18352 18355 18358     9 
18354 18352 18355 18356     9 
18354 18352 18355 18357     9 
18354 18352 18355 18358     9 
18363 18359 18360 18361     9 
18363 18359 18360 18362     9 
18363 18359 18360 18375     9 
18367 18359 18360 18361     9 
18367 18359 18360 18362     9 
18367 18359 18360 18375     9 
18371 18359 18360 18361     9 
18371 18359 18360 18362     9 
18371 18359 18360 18375     9 
18360 18359 18363 18364     9 
18360 18359 18363 18365     9 
18360 18359 18363 18366     9 
18367 18359 18363 18364     9 
18367 18359 18363 18365     9 
18367 18359 18363 18366     9 
18371 18359 18363 18364     9 
18371 18359 18363 18365     9 
18371 18359 18363 18366     9 
18360 18359 18367 18368     9 
18360 18359 18367 18369     9 
18360 18359 18367 18370     9 
18363 18359 18367 18368     9 
18363 18359 18367 18369     9 
18363 18359 18367 18370     9 
18371 18359 18367 18368     9 
18371 18359 18367 18369     9 
18371 18359 18367 18370     9 
18360 18359 18371 18372     9 
18360 18359 18371 18373     9 
18360 18359 18371 18374     9 
18363 18359 18371 18372     9 
18363 18359 18371 18373     9 
18363 18359 18371 18374     9 
18367 18359 18371 18372     9 
18367 18359 18371 18373     9 
18367 18359 18371 18374     9 
18359 18360 18375 18376     9 
18359 18360 18375 18377     9 
18359 18360 18375 18381     9 
18361 18360 18375 18376     9 
18361 18360 18375 18377     9 
18361 18360 18375 18381     9 
18362 18360 18375 18376     9 
18362 18360 18375 18377     9 
18362 18360 18375 18381     9 
18360 18375 18381 18378     9 
18376 18375 18381 18378     9 
18377 18375 18381 18378     9 
18379 18378 18381 18375     9 
18380 18378 18381 18375     9 
18382 18378 18381 18375     9 
18379 18378 18382 18383     9 
18380 18378 18382 18383     9 
18381 18378 18382 18383     9 
18378 18382 18383 18384     9 
18378 18382 18383 18385     9 
18378 18382 18383 18386     9 
18382 18383 18386 18387     9 
18382 18383 18386 18388     9 
18382 18383 18386 18394     9 
18384 18383 18386 18387     9 
18384 18383 18386 18388     9 
18384 18383 18386 18394     9 
18385 18383 18386 18387     9 
18385 18383 18386 18388     9 
18385 18383 18386 18394     9 
18383 18386 18388 18389     9 
18387 18386 18388 18389     9 
18394 18386 18388 18389     9 
18383 18386 18394 18395     9 
18383 18386 18394 18396     9 
18383 18386 18394 18397     9 
18387 18386 18394 18395     9 
18387 18386 18394 18396     9 
18387 18386 18394 18397     9 
18388 18386 18394 18395     9 
18388 18386 18394 18396     9 
18388 18386 18394 18397     9 
18386 18388 18389 18390     9 
18386 18388 18389 18391     9 
18388 18389 18391 18392     9 
18388 18389 18391 18393     9 
18388 18389 18391 18403     9 
18390 18389 18391 18392     9 
18390 18389 18391 18393     9 
18390 18389 18391 18403     9 
18389 18391 18403 18404     9 
18389 18391 18403 18405     9 
18389 18391 18403 18406     9 
18392 18391 18403 18404     9 
18392 18391 18403 18405     9 
18392 18391 18403 18406     9 
18393 18391 18403 18404     9 
18393 18391 18403 18405     9 
18393 18391 18403 18406     9 
18386 18394 18397 18398     9 
18395 18394 18397 18398     9 
18396 18394 18397 18398     9 
18394 18397 18398 18399     9 
18394 18397 18398 18400     9 
18397 18398 18400 18401     9 
18397 18398 18400 18402     9 
18397 18398 18400 18450     9 
18399 18398 18400 18401     9 
18399 18398 18400 18402     9 
18399 18398 18400 18450     9 
18398 18400 18450 18451     9 
18398 18400 18450 18452     9 
18398 18400 18450 18453     9 
18401 18400 18450 18451     9 
18401 18400 18450 18452     9 
18401 18400 18450 18453     9 
18402 18400 18450 18451     9 
18402 18400 18450 18452     9 
18402 18400 18450 18453     9 
18391 18403 18406 18407     9 
18391 18403 18406 18408     9 
18391 18403 18406 18409     9 
18404 18403 18406 18407     9 
18404 18403 18406 18408     9 
18404 18403 18406 18409     9 
18405 18403 18406 18407     9 
18405 18403 18406 18408     9 
18405 18403 18406 18409     9 
18403 18406 18409 18410     9 
18403 18406 18409 18411     9 
18403 18406 18409 18412     9 
18407 18406 18409 18410     9 
18407 18406 18409 18411     9 
18407 18406 18409 18412     9 
18408 18406 18409 18410     9 
18408 18406 18409 18411     9 
18408 18406 18409 18412     9 
18406 18409 18412 18413     9 
18406 18409 18412 18414     9 
18406 18409 18412 18415     9 
18410 18409 18412 18413     9 
18410 18409 18412 18414     9 
18410 18409 18412 18415     9 
18411 18409 18412 18413     9 
18411 18409 18412 18414     9 
18411 18409 18412 18415     9 
18409 18412 18415 18416     9 
18409 18412 18415 18417     9 
18409 18412 18415 18418     9 
18413 18412 18415 18416     9 
18413 18412 18415 18417     9 
18413 18412 18415 18418     9 
18414 18412 18415 18416     9 
18414 18412 18415 18417     9 
18414 18412 18415 18418     9 
18412 18415 18418 18419     9 
18412 18415 18418 18420     9 
18412 18415 18418 18421     9 
18416 18415 18418 18419     9 
18416 18415 18418 18420     9 
18416 18415 18418 18421     9 
18417 18415 18418 18419     9 
18417 18415 18418 18420     9 
18417 18415 18418 18421     9 
18415 18418 18421 18422     9 
18415 18418 18421 18423     9 
18419 18418 18421 18422     9 
18419 18418 18421 18423     9 
18420 18418 18421 18422     9 
18420 18418 18421 18423     9 
18418 18421 18423 18424     9 
18418 18421 18423 18425     9 
18422 18421 18423 18424     9 
18422 18421 18423 18425     9 
18421 18423 18425 18426     9 
18421 18423 18425 18427     9 
18421 18423 18425 18428     9 
18424 18423 18425 18426     9 
18424 18423 18425 18427     9 
18424 18423 18425 18428     9 
18423 18425 18428 18429     9 
18423 18425 18428 18430     9 
18423 18425 18428 18431     9 
18426 18425 18428 18429     9 
18426 18425 18428 18430     9 
18426 18425 18428 18431     9 
18427 18425 18428 18429     9 
18427 18425 18428 18430     9 
18427 18425 18428 18431     9 
18425 18428 18431 18432     9 
18425 18428 18431 18433     9 
18425 18428 18431 18434     9 
18429 18428 18431 18432     9 
18429 18428 18431 18433     9 
18429 18428 18431 18434     9 
18430 18428 18431 18432     9 
18430 18428 18431 18433     9 
18430 18428 18431 18434     9 
18428 18431 18434 18435     9 
18428 18431 18434 18436     9 
18428 18431 18434 18437     9 
18432 18431 18434 18435     9 
18432 18431 18434 18436     9 
18432 18431 18434 18437     9 
18433 18431 18434 18435     9 
18433 18431 18434 18436     9 
18433 18431 18434 18437     9 
18431 18434 18437 18438     9 
18431 18434 18437 18439     9 
18431 18434 18437 18440     9 
18435 18434 18437 18438     9 
18435 18434 18437 18439     9 
18435 18434 18437 18440     9 
18436 18434 18437 18438     9 
18436 18434 18437 18439     9 
18436 18434 18437 18440     9 
18434 18437 18440 18441     9 
18434 18437 18440 18442     9 
18434 18437 18440 18443     9 
18438 18437 18440 18441     9 
18438 18437 18440 18442     9 
18438 18437 18440 18443     9 
18439 18437 18440 18441     9 
18439 18437 18440 18442     9 
18439 18437 18440 18443     9 
18437 18440 18443 18444     9 
18437 18440 18443 18445     9 
18437 18440 18443 18446     9 
18441 18440 18443 18444     9 
18441 18440 18443 18445     9 
18441 18440 18443 18446     9 
18442 18440 18443 18444     9 
18442 18440 18443 18445     9 
18442 18440 18443 18446     9 
18440 18443 18446 18447     9 
18440 18443 18446 18448     9 
18440 18443 18446 18449     9 
18444 18443 18446 18447     9 
18444 18443 18446 18448     9 
18444 18443 18446 18449     9 
18445 18443 18446 18447     9 
18445 18443 18446 18448     9 
18445 18443 18446 18449     9 
18400 18450 18453 18454     9 
18400 18450 18453 18455     9 
18400 18450 18453 18456     9 
18451 18450 18453 18454     9 
18451 18450 18453 18455     9 
18451 18450 18453 18456     9 
18452 18450 18453 18454     9 
18452 18450 18453 18455     9 
18452 18450 18453 18456     9 
18450 18453 18456 18457     9 
18450 18453 18456 18458     9 
18450 18453 18456 18459     9 
18454 18453 18456 18457     9 
18454 18453 18456 18458     9 
18454 18453 18456 18459     9 
18455 18453 18456 18457     9 
18455 18453 18456 18458     9 
18455 18453 18456 18459     9 
18453 18456 18459 18460     9 
18453 18456 18459 18461     9 
18453 18456 18459 18462     9 
18457 18456 18459 18460     9 
18457 18456 18459 18461     9 
18457 18456 18459 18462     9 
18458 18456 18459 18460     9 
18458 18456 18459 18461     9 
18458 18456 18459 18462     9 
18456 18459 18462 18463     9 
18456 18459 18462 18464     9 
18456 18459 18462 18465     9 
18460 18459 18462 18463     9 
18460 18459 18462 18464     9 
18460 18459 18462 18465     9 
18461 18459 18462 18463     9 
18461 18459 18462 18464     9 
18461 18459 18462 18465     9 
18459 18462 18465 18466     9 
18459 18462 18465 18467     9 
18459 18462 18465 18468     9 
18463 18462 18465 18466     9 
18463 18462 18465 18467     9 
18463 18462 18465 18468     9 
18464 18462 18465 18466     9 
18464 18462 18465 18467     9 
18464 18462 18465 18468     9 
18462 18465 18468 18469     9 
18462 18465 18468 18470     9 
18462 18465 18468 18471     9 
18466 18465 18468 18469     9 
18466 18465 18468 18470     9 
18466 18465 18468 18471     9 
18467 18465 18468 18469     9 
18467 18465 18468 18470     9 
18467 18465 18468 18471     9 
18465 18468 18471 18472     9 
18465 18468 18471 18473     9 
18465 18468 18471 18474     9 
18469 18468 18471 18472     9 
18469 18468 18471 18473     9 
18469 18468 18471 18474     9 
18470 18468 18471 18472     9 
18470 18468 18471 18473     9 
18470 18468 18471 18474     9 
18468 18471 18474 18475     9 
18468 18471 18474 18476     9 
18468 18471 18474 18477     9 
18472 18471 18474 18475     9 
18472 18471 18474 18476     9 
18472 18471 18474 18477     9 
18473 18471 18474 18475     9 
18473 18471 18474 18476     9 
18473 18471 18474 18477     9 
18471 18474 18477 18478     9 
18471 18474 18477 18479     9 
18471 18474 18477 18480     9 
18475 18474 18477 18478     9 
18475 18474 18477 18479     9 
18475 18474 18477 18480     9 
18476 18474 18477 18478     9 
18476 18474 18477 18479     9 
18476 18474 18477 18480     9 
18474 18477 18480 18481     9 
18474 18477 18480 18482     9 
18474 18477 18480 18483     9 
18478 18477 18480 18481     9 
18478 18477 18480 18482     9 
18478 18477 18480 18483     9 
18479 18477 18480 18481     9 
18479 18477 18480 18482     9 
18479 18477 18480 18483     9 
18477 18480 18483 18484     9 
18477 18480 18483 18485     9 
18477 18480 18483 18486     9 
18481 18480 18483 18484     9 
18481 18480 18483 18485     9 
18481 18480 18483 18486     9 
18482 18480 18483 18484     9 
18482 18480 18483 18485     9 
18482 18480 18483 18486     9 
18480 18483 18486 18487     9 
18480 18483 18486 18488     9 
18480 18483 18486 18489     9 
18484 18483 18486 18487     9 
18484 18483 18486 18488     9 
18484 18483 18486 18489     9 
18485 18483 18486 18487     9 
18485 18483 18486 18488     9 
18485 18483 18486 18489     9 
18483 18486 18489 18490     9 
18483 18486 18489 18491     9 
18483 18486 18489 18492     9 
18487 18486 18489 18490     9 
18487 18486 18489 18491     9 
18487 18486 18489 18492     9 
18488 18486 18489 18490     9 
18488 18486 18489 18491     9 
18488 18486 18489 18492     9 
18497 18493 18494 18495     9 
18497 18493 18494 18496     9 
18497 18493 18494 18509     9 
18501 18493 18494 18495     9 
18501 18493 18494 18496     9 
18501 18493 18494 18509     9 
18505 18493 18494 18495     9 
18505 18493 18494 18496     9 
18505 18493 18494 18509     9 
18494 18493 18497 18498     9 
18494 18493 18497 18499     9 
18494 18493 18497 18500     9 
18501 18493 18497 18498     9 
18501 18493 18497 18499     9 
18501 18493 18497 18500     9 
18505 18493 18497 18498     9 
18505 18493 18497 18499     9 
18505 18493 18497 18500     9 
18494 18493 18501 18502     9 
18494 18493 18501 18503     9 
18494 18493 18501 18504     9 
18497 18493 18501 18502     9 
18497 18493 18501 18503     9 
18497 18493 18501 18504     9 
18505 18493 18501 18502     9 
18505 18493 18501 18503     9 
18505 18493 18501 18504     9 
18494 18493 18505 18506     9 
18494 18493 18505 18507     9 
18494 18493 18505 18508     9 
18497 18493 18505 18506     9 
18497 18493 18505 18507     9 
18497 18493 18505 18508     9 
18501 18493 18505 18506     9 
18501 18493 18505 18507     9 
18501 18493 18505 18508     9 
18493 18494 18509 18510     9 
18493 18494 18509 18511     9 
18493 18494 18509 18515     9 
18495 18494 18509 18510     9 
18495 18494 18509 18511     9 
18495 18494 18509 18515     9 
18496 18494 18509 18510     9 
18496 18494 18509 18511     9 
18496 18494 18509 18515     9 
18494 18509 18515 18512     9 
18510 18509 18515 18512     9 
18511 18509 18515 18512     9 
18513 18512 18515 18509     9 
18514 18512 18515 18509     9 
18516 18512 18515 18509     9 
18513 18512 18516 18517     9 
18514 18512 18516 18517     9 
18515 18512 18516 18517     9 
18512 18516 18517 18518     9 
18512 18516 18517 18519     9 
18512 18516 18517 18520     9 
18516 18517 18520 18521     9 
18516 18517 18520 18522     9 
18516 18517 18520 18528     9 
18518 18517 18520 18521     9 
18518 18517 18520 18522     9 
18518 18517 18520 18528     9 
18519 18517 18520 18521     9 
18519 18517 18520 18522     9 
18519 18517 18520 18528     9 
18517 18520 18522 18523     9 
18521 18520 18522 18523     9 
18528 18520 18522 18523     9 
18517 18520 18528 18529     9 
18517 18520 18528 18530     9 
18517 18520 18528 18531     9 
18521 18520 18528 18529     9 
18521 18520 18528 18530     9 
18521 18520 18528 18531     9 
18522 18520 18528 18529     9 
18522 18520 18528 18530     9 
18522 18520 18528 18531     9 
18520 18522 18523 18524     9 
18520 18522 18523 18525     9 
18522 18523 18525 18526     9 
18522 18523 18525 18527     9 
18522 18523 18525 18537     9 
18524 18523 18525 18526     9 
18524 18523 18525 18527     9 
18524 18523 18525 18537     9 
18523 18525 18537 18538     9 
18523 18525 18537 18539     9 
18523 18525 18537 18540     9 
18526 18525 18537 18538     9 
18526 18525 18537 18539     9 
18526 18525 18537 18540     9 
18527 18525 18537 18538     9 
18527 18525 18537 18539     9 
18527 18525 18537 18540     9 
18520 18528 18531 18532     9 
18529 18528 18531 18532     9 
18530 18528 18531 18532     9 
18528 18531 18532 18533     9 
18528 18531 18532 18534     9 
18531 18532 18534 18535     9 
18531 18532 18534 18536     9 
18531 18532 18534 18584     9 
18533 18532 18534 18535     9 
18533 18532 18534 18536     9 
18533 18532 18534 18584     9 
18532 18534 18584 18585     9 
18532 18534 18584 18586     9 
18532 18534 18584 18587     9 
18535 18534 18584 18585     9 
18535 18534 18584 18586     9 
18535 18534 18584 18587     9 
18536 18534 18584 18585     9 
18536 18534 18584 18586     9 
18536 18534 18584 18587     9 
18525 18537 18540 18541     9 
18525 18537 18540 18542     9 
18525 18537 18540 18543     9 
18538 18537 18540 18541     9 
18538 18537 18540 18542     9 
18538 18537 18540 18543     9 
18539 18537 18540 18541     9 
18539 18537 18540 18542     9 
18539 18537 18540 18543     9 
18537 18540 18543 18544     9 
18537 18540 18543 18545     9 
18537 18540 18543 18546     9 
18541 18540 18543 18544     9 
18541 18540 18543 18545     9 
18541 18540 18543 18546     9 
18542 18540 18543 18544     9 
18542 18540 18543 18545     9 
18542 18540 18543 18546     9 
18540 18543 18546 18547     9 
18540 18543 18546 18548     9 
18540 18543 18546 18549     9 
18544 18543 18546 18547     9 
18544 18543 18546 18548     9 
18544 18543 18546 18549     9 
18545 18543 18546 18547     9 
18545 18543 18546 18548     9 
18545 18543 18546 18549     9 
18543 18546 18549 18550     9 
18543 18546 18549 18551     9 
18543 18546 18549 18552     9 
18547 18546 18549 18550     9 
18547 18546 18549 18551     9 
18547 18546 18549 18552     9 
18548 18546 18549 18550     9 
18548 18546 18549 18551     9 
18548 18546 18549 18552     9 
18546 18549 18552 18553     9 
18546 18549 18552 18554     9 
18546 18549 18552 18555     9 
18550 18549 18552 18553     9 
18550 18549 18552 18554     9 
18550 18549 18552 18555     9 
18551 18549 18552 18553     9 
18551 18549 18552 18554     9 
18551 18549 18552 18555     9 
18549 18552 18555 18556     9 
18549 18552 18555 18557     9 
18553 18552 18555 18556     9 
18553 18552 18555 18557     9 
18554 18552 18555 18556     9 
18554 18552 18555 18557     9 
18552 18555 18557 18558     9 
18552 18555 18557 18559     9 
18556 18555 18557 18558     9 
18556 18555 18557 18559     9 
18555 18557 18559 18560     9 
18555 18557 18559 18561     9 
18555 18557 18559 18562     9 
18558 18557 18559 18560     9 
18558 18557 18559 18561     9 
18558 18557 18559 18562     9 
18557 18559 18562 18563     9 
18557 18559 18562 18564     9 
18557 18559 18562 18565     9 
18560 18559 18562 18563     9 
18560 18559 18562 18564     9 
18560 18559 18562 18565     9 
18561 18559 18562 18563     9 
18561 18559 18562 18564     9 
18561 18559 18562 18565     9 
18559 18562 18565 18566     9 
18559 18562 18565 18567     9 
18559 18562 18565 18568     9 
18563 18562 18565 18566     9 
18563 18562 18565 18567     9 
18563 18562 18565 18568     9 
18564 18562 18565 18566     9 
18564 18562 18565 18567     9 
18564 18562 18565 18568     9 
18562 18565 18568 18569     9 
18562 18565 18568 18570     9 
18562 18565 18568 18571     9 
18566 18565 18568 18569     9 
18566 18565 18568 18570     9 
18566 18565 18568 18571     9 
18567 18565 18568 18569     9 
18567 18565 18568 18570     9 
18567 18565 18568 18571     9 
18565 18568 18571 18572     9 
18565 18568 18571 18573     9 
18565 18568 18571 18574     9 
18569 18568 18571 18572     9 
18569 18568 18571 18573     9 
18569 18568 18571 18574     9 
18570 18568 18571 18572     9 
18570 18568 18571 18573     9 
18570 18568 18571 18574     9 
18568 18571 18574 18575     9 
18568 18571 18574 18576     9 
18568 18571 18574 18577     9 
18572 18571 18574 18575     9 
18572 18571 18574 18576     9 
18572 18571 18574 18577     9 
18573 18571 18574 18575     9 
18573 18571 18574 18576     9 
18573 18571 18574 18577     9 
18571 18574 18577 18578     9 
18571 18574 18577 18579     9 
18571 18574 18577 18580     9 
18575 18574 18577 18578     9 
18575 18574 18577 18579     9 
18575 18574 18577 18580     9 
18576 18574 18577 18578     9 
18576 18574 18577 18579     9 
18576 18574 18577 18580     9 
18574 18577 18580 18581     9 
18574 18577 18580 18582     9 
18574 18577 18580 18583     9 
18578 18577 18580 18581     9 
18578 18577 18580 18582     9 
18578 18577 18580 18583     9 
18579 18577 18580 18581     9 
18579 18577 18580 18582     9 
18579 18577 18580 18583     9 
18534 18584 18587 18588     9 
18534 18584 18587 18589     9 
18534 18584 18587 18590     9 
18585 18584 18587 18588     9 
18585 18584 18587 18589     9 
18585 18584 18587 18590     9 
18586 18584 18587 18588     9 
18586 18584 18587 18589     9 
18586 18584 18587 18590     9 
18584 18587 18590 18591     9 
18584 18587 18590 18592     9 
18584 18587 18590 18593     9 
18588 18587 18590 18591     9 
18588 18587 18590 18592     9 
18588 18587 18590 18593     9 
18589 18587 18590 18591     9 
18589 18587 18590 18592     9 
18589 18587 18590 18593     9 
18587 18590 18593 18594     9 
18587 18590 18593 18595     9 
18587 18590 18593 18596     9 
18591 18590 18593 18594     9 
18591 18590 18593 18595     9 
18591 18590 18593 18596     9 
18592 18590 18593 18594     9 
18592 18590 18593 18595     9 
18592 18590 18593 18596     9 
18590 18593 18596 18597     9 
18590 18593 18596 18598     9 
18590 18593 18596 18599     9 
18594 18593 18596 18597     9 
18594 18593 18596 18598     9 
18594 18593 18596 18599     9 
18595 18593 18596 18597     9 
18595 18593 18596 18598     9 
18595 18593 18596 18599     9 
18593 18596 18599 18600     9 
18593 18596 18599 18601     9 
18593 18596 18599 18602     9 
18597 18596 18599 18600     9 
18597 18596 18599 18601     9 
18597 18596 18599 18602     9 
18598 18596 18599 18600     9 
18598 18596 18599 18601     9 
18598 18596 18599 18602     9 
18596 18599 18602 18603     9 
18596 18599 18602 18604     9 
18596 18599 18602 18605     9 
18600 18599 18602 18603     9 
18600 18599 18602 18604     9 
18600 18599 18602 18605     9 
18601 18599 18602 18603     9 
18601 18599 18602 18604     9 
18601 18599 18602 18605     9 
18599 18602 18605 18606     9 
18599 18602 18605 18607     9 
18599 18602 18605 18608     9 
18603 18602 18605 18606     9 
18603 18602 18605 18607     9 
18603 18602 18605 18608     9 
18604 18602 18605 18606     9 
18604 18602 18605 18607     9 
18604 18602 18605 18608     9 
18602 18605 18608 18609     9 
18602 18605 18608 18610     9 
18602 18605 18608 18611     9 
18606 18605 18608 18609     9 
18606 18605 18608 18610     9 
18606 18605 18608 18611     9 
18607 18605 18608 18609     9 
18607 18605 18608 18610     9 
18607 18605 18608 18611     9 
18605 18608 18611 18612     9 
18605 18608 18611 18613     9 
18605 18608 18611 18614     9 
18609 18608 18611 18612     9 
18609 18608 18611 18613     9 
18609 18608 18611 18614     9 
18610 18608 18611 18612     9 
18610 18608 18611 18613     9 
18610 18608 18611 18614     9 
18608 18611 18614 18615     9 
18608 18611 18614 18616     9 
18608 18611 18614 18617     9 
18612 18611 18614 18615     9 
18612 18611 18614 18616     9 
18612 18611 18614 18617     9 
18613 18611 18614 18615     9 
18613 18611 18614 18616     9 
18613 18611 18614 18617     9 
18611 18614 18617 18618     9 
18611 18614 18617 18619     9 
18611 18614 18617 18620     9 
18615 18614 18617 18618     9 
18615 18614 18617 18619     9 
18615 18614 18617 18620     9 
18616 18614 18617 18618     9 
18616 18614 18617 18619     9 
18616 18614 18617 18620     9 
18614 18617 18620 18621     9 
18614 18617 18620 18622     9 
18614 18617 18620 18623     9 
18618 18617 18620 18621     9 
18618 18617 18620 18622     9 
18618 18617 18620 18623     9 
18619 18617 18620 18621     9 
18619 18617 18620 18622     9 
18619 18617 18620 18623     9 
18617 18620 18623 18624     9 
18617 18620 18623 18625     9 
18617 18620 18623 18626     9 
18621 18620 18623 18624     9 
18621 18620 18623 18625     9 
18621 18620 18623 18626     9 
18622 18620 18623 18624     9 
18622 18620 18623 18625     9 
18622 18620 18623 18626     9 
18631 18627 18628 18629     9 
18631 18627 18628 18630     9 
18631 18627 18628 18643     9 
18635 18627 18628 18629     9 
18635 18627 18628 18630     9 
18635 18627 18628 18643     9 
18639 18627 18628 18629     9 
18639 18627 18628 18630     9 
18639 18627 18628 18643     9 
18628 18627 18631 18632     9 
18628 18627 18631 18633     9 
18628 18627 18631 18634     9 
18635 18627 18631 18632     9 
18635 18627 18631 18633     9 
18635 18627 18631 18634     9 
18639 18627 18631 18632     9 
18639 18627 18631 18633     9 
18639 18627 18631 18634     9 
18628 18627 18635 18636     9 
18628 18627 18635 18637     9 
18628 18627 18635 18638     9 
18631 18627 18635 18636     9 
18631 18627 18635 18637     9 
18631 18627 18635 18638     9 
18639 18627 18635 18636     9 
18639 18627 18635 18637     9 
18639 18627 18635 18638     9 
18628 18627 18639 18640     9 
18628 18627 18639 18641     9 
18628 18627 18639 18642     9 
18631 18627 18639 18640     9 
18631 18627 18639 18641     9 
18631 18627 18639 18642     9 
18635 18627 18639 18640     9 
18635 18627 18639 18641     9 
18635 18627 18639 18642     9 
18627 18628 18643 18644     9 
18627 18628 18643 18645     9 
18627 18628 18643 18649     9 
18629 18628 18643 18644     9 
18629 18628 18643 18645     9 
18629 18628 18643 18649     9 
18630 18628 18643 18644     9 
18630 18628 18643 18645     9 
18630 18628 18643 18649     9 
18628 18643 18649 18646     9 
18644 18643 18649 18646     9 
18645 18643 18649 18646     9 
18647 18646 18649 18643     9 
18648 18646 18649 18643     9 
18650 18646 18649 18643     9 
18647 18646 18650 18651     9 
18648 18646 18650 18651     9 
18649 18646 18650 18651     9 
18646 18650 18651 18652     9 
18646 18650 18651 18653     9 
18646 18650 18651 18654     9 
18650 18651 18654 18655     9 
18650 18651 18654 18656     9 
18650 18651 18654 18662     9 
18652 18651 18654 18655     9 
18652 18651 18654 18656     9 
18652 18651 18654 18662     9 
18653 18651 18654 18655     9 
18653 18651 18654 18656     9 
18653 18651 18654 18662     9 
18651 18654 18656 18657     9 
18655 18654 18656 18657     9 
18662 18654 18656 18657     9 
18651 18654 18662 18663     9 
18651 18654 18662 18664     9 
18651 18654 18662 18665     9 
18655 18654 18662 18663     9 
18655 18654 18662 18664     9 
18655 18654 18662 18665     9 
18656 18654 18662 18663     9 
18656 18654 18662 18664     9 
18656 18654 18662 18665     9 
18654 18656 18657 18658     9 
18654 18656 18657 18659     9 
18656 18657 18659 18660     9 
18656 18657 18659 18661     9 
18656 18657 18659 18671     9 
18658 18657 18659 18660     9 
18658 18657 18659 18661     9 
18658 18657 18659 18671     9 
18657 18659 18671 18672     9 
18657 18659 18671 18673     9 
18657 18659 18671 18674     9 
18660 18659 18671 18672     9 
18660 18659 18671 18673     9 
18660 18659 18671 18674     9 
18661 18659 18671 18672     9 
18661 18659 18671 18673     9 
18661 18659 18671 18674     9 
18654 18662 18665 18666     9 
18663 18662 18665 18666     9 
18664 18662 18665 18666     9 
18662 18665 18666 18667     9 
18662 18665 18666 18668     9 
18665 18666 18668 18669     9 
18665 18666 18668 18670     9 
18665 18666 18668 18718     9 
18667 18666 18668 18669     9 
18667 18666 18668 18670     9 
18667 18666 18668 18718     9 
18666 18668 18718 18719     9 
18666 18668 18718 18720     9 
18666 18668 18718 18721     9 
18669 18668 18718 18719     9 
18669 18668 18718 18720     9 
18669 18668 18718 18721     9 
18670 18668 18718 18719     9 
18670 18668 18718 18720     9 
18670 18668 18718 18721     9 
18659 18671 18674 18675     9 
18659 18671 18674 18676     9 
18659 18671 18674 18677     9 
18672 18671 18674 18675     9 
18672 18671 18674 18676     9 
18672 18671 18674 18677     9 
18673 18671 18674 18675     9 
18673 18671 18674 18676     9 
18673 18671 18674 18677     9 
18671 18674 18677 18678     9 
18671 18674 18677 18679     9 
18671 18674 18677 18680     9 
18675 18674 18677 18678     9 
18675 18674 18677 18679     9 
18675 18674 18677 18680     9 
18676 18674 18677 18678     9 
18676 18674 18677 18679     9 
18676 18674 18677 18680     9 
18674 18677 18680 18681     9 
18674 18677 18680 18682     9 
18674 18677 18680 18683     9 
18678 18677 18680 18681     9 
18678 18677 18680 18682     9 
18678 18677 18680 18683     9 
18679 18677 18680 18681     9 
18679 18677 18680 18682     9 
18679 18677 18680 18683     9 
18677 18680 18683 18684     9 
18677 18680 18683 18685     9 
18677 18680 18683 18686     9 
18681 18680 18683 18684     9 
18681 18680 18683 18685     9 
18681 18680 18683 18686     9 
18682 18680 18683 18684     9 
18682 18680 18683 18685     9 
18682 18680 18683 18686     9 
18680 18683 18686 18687     9 
18680 18683 18686 18688     9 
18680 18683 18686 18689     9 
18684 18683 18686 18687     9 
18684 18683 18686 18688     9 
18684 18683 18686 18689     9 
18685 18683 18686 18687     9 
18685 18683 18686 18688     9 
18685 18683 18686 18689     9 
18683 18686 18689 18690     9 
18683 18686 18689 18691     9 
18687 18686 18689 18690     9 
18687 18686 18689 18691     9 
18688 18686 18689 18690     9 
18688 18686 18689 18691     9 
18686 18689 18691 18692     9 
18686 18689 18691 18693     9 
18690 18689 18691 18692     9 
18690 18689 18691 18693     9 
18689 18691 18693 18694     9 
18689 18691 18693 18695     9 
18689 18691 18693 18696     9 
18692 18691 18693 18694     9 
18692 18691 18693 18695     9 
18692 18691 18693 18696     9 
18691 18693 18696 18697     9 
18691 18693 18696 18698     9 
18691 18693 18696 18699     9 
18694 18693 18696 18697     9 
18694 18693 18696 18698     9 
18694 18693 18696 18699     9 
18695 18693 18696 18697     9 
18695 18693 18696 18698     9 
18695 18693 18696 18699     9 
18693 18696 18699 18700     9 
18693 18696 18699 18701     9 
18693 18696 18699 18702     9 
18697 18696 18699 18700     9 
18697 18696 18699 18701     9 
18697 18696 18699 18702     9 
18698 18696 18699 18700     9 
18698 18696 18699 18701     9 
18698 18696 18699 18702     9 
18696 18699 18702 18703     9 
18696 18699 18702 18704     9 
18696 18699 18702 18705     9 
18700 18699 18702 18703     9 
18700 18699 18702 18704     9 
18700 18699 18702 18705     9 
18701 18699 18702 18703     9 
18701 18699 18702 18704     9 
18701 18699 18702 18705     9 
18699 18702 18705 18706     9 
18699 18702 18705 18707     9 
18699 18702 18705 18708     9 
18703 18702 18705 18706     9 
18703 18702 18705 18707     9 
18703 18702 18705 18708     9 
18704 18702 18705 18706     9 
18704 18702 18705 18707     9 
18704 18702 18705 18708     9 
18702 18705 18708 18709     9 
18702 18705 18708 18710     9 
18702 18705 18708 18711     9 
18706 18705 18708 18709     9 
18706 18705 18708 18710     9 
18706 18705 18708 18711     9 
18707 18705 18708 18709     9 
18707 18705 18708 18710     9 
18707 18705 18708 18711     9 
18705 18708 18711 18712     9 
18705 18708 18711 18713     9 
18705 18708 18711 18714     9 
18709 18708 18711 18712     9 
18709 18708 18711 18713     9 
18709 18708 18711 18714     9 
18710 18708 18711 18712     9 
18710 18708 18711 18713     9 
18710 18708 18711 18714     9 
18708 18711 18714 18715     9 
18708 18711 18714 18716     9 
18708 18711 18714 18717     9 
18712 18711 18714 18715     9 
18712 18711 18714 18716     9 
18712 18711 18714 18717     9 
18713 18711 18714 18715     9 
18713 18711 18714 18716     9 
18713 18711 18714 18717     9 
18668 18718 18721 18722     9 
18668 18718 18721 18723     9 
18668 18718 18721 18724     9 
18719 18718 18721 18722     9 
18719 18718 18721 18723     9 
18719 18718 18721 18724     9 
18720 18718 18721 18722     9 
18720 18718 18721 18723     9 
18720 18718 18721 18724     9 
18718 18721 18724 18725     9 
18718 18721 18724 18726     9 
18718 18721 18724 18727     9 
18722 18721 18724 18725     9 
18722 18721 18724 18726     9 
18722 18721 18724 18727     9 
18723 18721 18724 18725     9 
18723 18721 18724 18726     9 
18723 18721 18724 18727     9 
18721 18724 18727 18728     9 
18721 18724 18727 18729     9 
18721 18724 18727 18730     9 
18725 18724 18727 18728     9 
18725 18724 18727 18729     9 
18725 18724 18727 18730     9 
18726 18724 18727 18728     9 
18726 18724 18727 18729     9 
18726 18724 18727 18730     9 
18724 18727 18730 18731     9 
18724 18727 18730 18732     9 
18724 18727 18730 18733     9 
18728 18727 18730 18731     9 
18728 18727 18730 18732     9 
18728 18727 18730 18733     9 
18729 18727 18730 18731     9 
18729 18727 18730 18732     9 
18729 18727 18730 18733     9 
18727 18730 18733 18734     9 
18727 18730 18733 18735     9 
18727 18730 18733 18736     9 
18731 18730 18733 18734     9 
18731 18730 18733 18735     9 
18731 18730 18733 18736     9 
18732 18730 18733 18734     9 
18732 18730 18733 18735     9 
18732 18730 18733 18736     9 
18730 18733 18736 18737     9 
18730 18733 18736 18738     9 
18730 18733 18736 18739     9 
18734 18733 18736 18737     9 
18734 18733 18736 18738     9 
18734 18733 18736 18739     9 
18735 18733 18736 18737     9 
18735 18733 18736 18738     9 
18735 18733 18736 18739     9 
18733 18736 18739 18740     9 
18733 18736 18739 18741     9 
18733 18736 18739 18742     9 
18737 18736 18739 18740     9 
18737 18736 18739 18741     9 
18737 18736 18739 18742     9 
18738 18736 18739 18740     9 
18738 18736 18739 18741     9 
18738 18736 18739 18742     9 
18736 18739 18742 18743     9 
18736 18739 18742 18744     9 
18736 18739 18742 18745     9 
18740 18739 18742 18743     9 
18740 18739 18742 18744     9 
18740 18739 18742 18745     9 
18741 18739 18742 18743     9 
18741 18739 18742 18744     9 
18741 18739 18742 18745     9 
18739 18742 18745 18746     9 
18739 18742 18745 18747     9 
18739 18742 18745 18748     9 
18743 18742 18745 18746     9 
18743 18742 18745 18747     9 
18743 18742 18745 18748     9 
18744 18742 18745 18746     9 
18744 18742 18745 18747     9 
18744 18742 18745 18748     9 
18742 18745 18748 18749     9 
18742 18745 18748 18750     9 
18742 18745 18748 18751     9 
18746 18745 18748 18749     9 
18746 18745 18748 18750     9 
18746 18745 18748 18751     9 
18747 18745 18748 18749     9 
18747 18745 18748 18750     9 
18747 18745 18748 18751     9 
18745 18748 18751 18752     9 
18745 18748 18751 18753     9 
18745 18748 18751 18754     9 
18749 18748 18751 18752     9 
18749 18748 18751 18753     9 
18749 18748 18751 18754     9 
18750 18748 18751 18752     9 
18750 18748 18751 18753     9 
18750 18748 18751 18754     9 
18748 18751 18754 18755     9 
18748 18751 18754 18756     9 
18748 18751 18754 18757     9 
18752 18751 18754 18755     9 
18752 18751 18754 18756     9 
18752 18751 18754 18757     9 
18753 18751 18754 18755     9 
18753 18751 18754 18756     9 
18753 18751 18754 18757     9 
18751 18754 18757 18758     9 
18751 18754 18757 18759     9 
18751 18754 18757 18760     9 
18755 18754 18757 18758     9 
18755 18754 18757 18759     9 
18755 18754 18757 18760     9 
18756 18754 18757 18758     9 
18756 18754 18757 18759     9 
18756 18754 18757 18760     9 
18765 18761 18762 18763     9 
18765 18761 18762 18764     9 
18765 18761 18762 18777     9 
18769 18761 18762 18763     9 
18769 18761 18762 18764     9 
18769 18761 18762 18777     9 
18773 18761 18762 18763     9 
18773 18761 18762 18764     9 
18773 18761 18762 18777     9 
18762 18761 18765 18766     9 
18762 18761 18765 18767     9 
18762 18761 18765 18768     9 
18769 18761 18765 18766     9 
18769 18761 18765 18767     9 
18769 18761 18765 18768     9 
18773 18761 18765 18766     9 
18773 18761 18765 18767     9 
18773 18761 18765 18768     9 
18762 18761 18769 18770     9 
18762 18761 18769 18771     9 
18762 18761 18769 18772     9 
18765 18761 18769 18770     9 
18765 18761 18769 18771     9 
18765 18761 18769 18772     9 
18773 18761 18769 18770     9 
18773 18761 18769 18771     9 
18773 18761 18769 18772     9 
18762 18761 18773 18774     9 
18762 18761 18773 18775     9 
18762 18761 18773 18776     9 
18765 18761 18773 18774     9 
18765 18761 18773 18775     9 
18765 18761 18773 18776     9 
18769 18761 18773 18774     9 
18769 18761 18773 18775     9 
18769 18761 18773 18776     9 
18761 18762 18777 18778     9 
18761 18762 18777 18779     9 
18761 18762 18777 18783     9 
18763 18762 18777 18778     9 
18763 18762 18777 18779     9 
18763 18762 18777 18783     9 
18764 18762 18777 18778     9 
18764 18762 18777 18779     9 
18764 18762 18777 18783     9 
18762 18777 18783 18780     9 
18778 18777 18783 18780     9 
18779 18777 18783 18780     9 
18781 18780 18783 18777     9 
18782 18780 18783 18777     9 
18784 18780 18783 18777     9 
18781 18780 18784 18785     9 
18782 18780 18784 18785     9 
18783 18780 18784 18785     9 
18780 18784 18785 18786     9 
18780 18784 18785 18787     9 
18780 18784 18785 18788     9 
18784 18785 18788 18789     9 
18784 18785 18788 18790     9 
18784 18785 18788 18796     9 
18786 18785 18788 18789     9 
18786 18785 18788 18790     9 
18786 18785 18788 18796     9 
18787 18785 18788 18789     9 
18787 18785 18788 18790     9 
18787 18785 18788 18796     9 
18785 18788 18790 18791     9 
18789 18788 18790 18791     9 
18796 18788 18790 18791     9 
18785 18788 18796 18797     9 
18785 18788 18796 18798     9 
18785 18788 18796 18799     9 
18789 18788 18796 18797     9 
18789 18788 18796 18798     9 
18789 18788 18796 18799     9 
18790 18788 18796 18797     9 
18790 18788 18796 18798     9 
18790 18788 18796 18799     9 
18788 18790 18791 18792     9 
18788 18790 18791 18793     9 
18790 18791 18793 18794     9 
18790 18791 18793 18795     9 
18790 18791 18793 18805     9 
18792 18791 18793 18794     9 
18792 18791 18793 18795     9 
18792 18791 18793 18805     9 
18791 18793 18805 18806     9 
18791 18793 18805 18807     9 
18791 18793 18805 18808     9 
18794 18793 18805 18806     9 
18794 18793 18805 18807     9 
18794 18793 18805 18808     9 
18795 18793 18805 18806     9 
18795 18793 18805 18807     9 
18795 18793 18805 18808     9 
18788 18796 18799 18800     9 
18797 18796 18799 18800     9 
18798 18796 18799 18800     9 
18796 18799 18800 18801     9 
18796 18799 18800 18802     9 
18799 18800 18802 18803     9 
18799 18800 18802 18804     9 
18799 18800 18802 18852     9 
18801 18800 18802 18803     9 
18801 18800 18802 18804     9 
18801 18800 18802 18852     9 
18800 18802 18852 18853     9 
18800 18802 18852 18854     9 
18800 18802 18852 18855     9 
18803 18802 18852 18853     9 
18803 18802 18852 18854     9 
18803 18802 18852 18855     9 
18804 18802 18852 18853     9 
18804 18802 18852 18854     9 
18804 18802 18852 18855     9 
18793 18805 18808 18809     9 
18793 18805 18808 18810     9 
18793 18805 18808 18811     9 
18806 18805 18808 18809     9 
18806 18805 18808 18810     9 
18806 18805 18808 18811     9 
18807 18805 18808 18809     9 
18807 18805 18808 18810     9 
18807 18805 18808 18811     9 
18805 18808 18811 18812     9 
18805 18808 18811 18813     9 
18805 18808 18811 18814     9 
18809 18808 18811 18812     9 
18809 18808 18811 18813     9 
18809 18808 18811 18814     9 
18810 18808 18811 18812     9 
18810 18808 18811 18813     9 
18810 18808 18811 18814     9 
18808 18811 18814 18815     9 
18808 18811 18814 18816     9 
18808 18811 18814 18817     9 
18812 18811 18814 18815     9 
18812 18811 18814 18816     9 
18812 18811 18814 18817     9 
18813 18811 18814 18815     9 
18813 18811 18814 18816     9 
18813 18811 18814 18817     9 
18811 18814 18817 18818     9 
18811 18814 18817 18819     9 
18811 18814 18817 18820     9 
18815 18814 18817 18818     9 
18815 18814 18817 18819     9 
18815 18814 18817 18820     9 
18816 18814 18817 18818     9 
18816 18814 18817 18819     9 
18816 18814 18817 18820     9 
18814 18817 18820 18821     9 
18814 18817 18820 18822     9 
18814 18817 18820 18823     9 
18818 18817 18820 18821     9 
18818 18817 18820 18822     9 
18818 18817 18820 18823     9 
18819 18817 18820 18821     9 
18819 18817 18820 18822     9 
18819 18817 18820 18823     9 
18817 18820 18823 18824     9 
18817 18820 18823 18825     9 
18821 18820 18823 18824     9 
18821 18820 18823 18825     9 
18822 18820 18823 18824     9 
18822 18820 18823 18825     9 
18820 18823 18825 18826     9 
18820 18823 18825 18827     9 
18824 18823 18825 18826     9 
18824 18823 18825 18827     9 
18823 18825 18827 18828     9 
18823 18825 18827 18829     9 
18823 18825 18827 18830     9 
18826 18825 18827 18828     9 
18826 18825 18827 18829     9 
18826 18825 18827 18830     9 
18825 18827 18830 18831     9 
18825 18827 18830 18832     9 
18825 18827 18830 18833     9 
18828 18827 18830 18831     9 
18828 18827 18830 18832     9 
18828 18827 18830 18833     9 
18829 18827 18830 18831     9 
18829 18827 18830 18832     9 
18829 18827 18830 18833     9 
18827 18830 18833 18834     9 
18827 18830 18833 18835     9 
18827 18830 18833 18836     9 
18831 18830 18833 18834     9 
18831 18830 18833 18835     9 
18831 18830 18833 18836     9 
18832 18830 18833 18834     9 
18832 18830 18833 18835     9 
18832 18830 18833 18836     9 
18830 18833 18836 18837     9 
18830 18833 18836 18838     9 
18830 18833 18836 18839     9 
18834 18833 18836 18837     9 
18834 18833 18836 18838     9 
18834 18833 18836 18839     9 
18835 18833 18836 18837     9 
18835 18833 18836 18838     9 
18835 18833 18836 18839     9 
18833 18836 18839 18840     9 
18833 18836 18839 18841     9 
18833 18836 18839 18842     9 
18837 18836 18839 18840     9 
18837 18836 18839 18841     9 
18837 18836 18839 18842     9 
18838 18836 18839 18840     9 
18838 18836 18839 18841     9 
18838 18836 18839 18842     9 
18836 18839 18842 18843     9 
18836 18839 18842 18844     9 
18836 18839 18842 18845     9 
18840 18839 18842 18843     9 
18840 18839 18842 18844     9 
18840 18839 18842 18845     9 
18841 18839 18842 18843     9 
18841 18839 18842 18844     9 
18841 18839 18842 18845     9 
18839 18842 18845 18846     9 
18839 18842 18845 18847     9 
18839 18842 18845 18848     9 
18843 18842 18845 18846     9 
18843 18842 18845 18847     9 
18843 18842 18845 18848     9 
18844 18842 18845 18846     9 
18844 18842 18845 18847     9 
18844 18842 18845 18848     9 
18842 18845 18848 18849     9 
18842 18845 18848 18850     9 
18842 18845 18848 18851     9 
18846 18845 18848 18849     9 
18846 18845 18848 18850     9 
18846 18845 18848 18851     9 
18847 18845 18848 18849     9 
18847 18845 18848 18850     9 
18847 18845 18848 18851     9 
18802 18852 18855 18856     9 
18802 18852 18855 18857     9 
18802 18852 18855 18858     9 
18853 18852 18855 18856     9 
18853 18852 18855 18857     9 
18853 18852 18855 18858     9 
18854 18852 18855 18856     9 
18854 18852 18855 18857     9 
18854 18852 18855 18858     9 
18852 18855 18858 18859     9 
18852 18855 18858 18860     9 
18852 18855 18858 18861     9 
18856 18855 18858 18859     9 
18856 18855 18858 18860     9 
18856 18855 18858 18861     9 
18857 18855 18858 18859     9 
18857 18855 18858 18860     9 
18857 18855 18858 18861     9 
18855 18858 18861 18862     9 
18855 18858 18861 18863     9 
18855 18858 18861 18864     9 
18859 18858 18861 18862     9 
18859 18858 18861 18863     9 
18859 18858 18861 18864     9 
18860 18858 18861 18862     9 
18860 18858 18861 18863     9 
18860 18858 18861 18864     9 
18858 18861 18864 18865     9 
18858 18861 18864 18866     9 
18858 18861 18864 18867     9 
18862 18861 18864 18865     9 
18862 18861 18864 18866     9 
18862 18861 18864 18867     9 
18863 18861 18864 18865     9 
18863 18861 18864 18866     9 
18863 18861 18864 18867     9 
18861 18864 18867 18868     9 
18861 18864 18867 18869     9 
18861 18864 18867 18870     9 
18865 18864 18867 18868     9 
18865 18864 18867 18869     9 
18865 18864 18867 18870     9 
18866 18864 18867 18868     9 
18866 18864 18867 18869     9 
18866 18864 18867 18870     9 
18864 18867 18870 18871     9 
18864 18867 18870 18872     9 
18864 18867 18870 18873     9 
18868 18867 18870 18871     9 
18868 18867 18870 18872     9 
18868 18867 18870 18873     9 
18869 18867 18870 18871     9 
18869 18867 18870 18872     9 
18869 18867 18870 18873     9 
18867 18870 18873 18874     9 
18867 18870 18873 18875     9 
18867 18870 18873 18876     9 
18871 18870 18873 18874     9 
18871 18870 18873 18875     9 
18871 18870 18873 18876     9 
18872 18870 18873 18874     9 
18872 18870 18873 18875     9 
18872 18870 18873 18876     9 
18870 18873 18876 18877     9 
18870 18873 18876 18878     9 
18870 18873 18876 18879     9 
18874 18873 18876 18877     9 
18874 18873 18876 18878     9 
18874 18873 18876 18879     9 
18875 18873 18876 18877     9 
18875 18873 18876 18878     9 
18875 18873 18876 18879     9 
18873 18876 18879 18880     9 
18873 18876 18879 18881     9 
18873 18876 18879 18882     9 
18877 18876 18879 18880     9 
18877 18876 18879 18881     9 
18877 18876 18879 18882     9 
18878 18876 18879 18880     9 
18878 18876 18879 18881     9 
18878 18876 18879 18882     9 
18876 18879 18882 18883     9 
18876 18879 18882 18884     9 
18876 18879 18882 18885     9 
18880 18879 18882 18883     9 
18880 18879 18882 18884     9 
18880 18879 18882 18885     9 
18881 18879 18882 18883     9 
18881 18879 18882 18884     9 
18881 18879 18882 18885     9 
18879 18882 18885 18886     9 
18879 18882 18885 18887     9 
18879 18882 18885 18888     9 
18883 18882 18885 18886     9 
18883 18882 18885 18887     9 
18883 18882 18885 18888     9 
18884 18882 18885 18886     9 
18884 18882 18885 18887     9 
18884 18882 18885 18888     9 
18882 18885 18888 18889     9 
18882 18885 18888 18890     9 
18882 18885 18888 18891     9 
18886 18885 18888 18889     9 
18886 18885 18888 18890     9 
18886 18885 18888 18891     9 
18887 18885 18888 18889     9 
18887 18885 18888 18890     9 
18887 18885 18888 18891     9 
18885 18888 18891 18892     9 
18885 18888 18891 18893     9 
18885 18888 18891 18894     9 
18889 18888 18891 18892     9 
18889 18888 18891 18893     9 
18889 18888 18891 18894     9 
18890 18888 18891 18892     9 
18890 18888 18891 18893     9 
18890 18888 18891 18894     9 
18899 18895 18896 18897     9 
18899 18895 18896 18898     9 
18899 18895 18896 18911     9 
18903 18895 18896 18897     9 
18903 18895 18896 18898     9 
18903 18895 18896 18911     9 
18907 18895 18896 18897     9 
18907 18895 18896 18898     9 
18907 18895 18896 18911     9 
18896 18895 18899 18900     9 
18896 18895 18899 18901     9 
18896 18895 18899 18902     9 
18903 18895 18899 18900     9 
18903 18895 18899 18901     9 
18903 18895 18899 18902     9 
18907 18895 18899 18900     9 
18907 18895 18899 18901     9 
18907 18895 18899 18902     9 
18896 18895 18903 18904     9 
18896 18895 18903 18905     9 
18896 18895 18903 18906     9 
18899 18895 18903 18904     9 
18899 18895 18903 18905     9 
18899 18895 18903 18906     9 
18907 18895 18903 18904     9 
18907 18895 18903 18905     9 
18907 18895 18903 18906     9 
18896 18895 18907 18908     9 
18896 18895 18907 18909     9 
18896 18895 18907 18910     9 
18899 18895 18907 18908     9 
18899 18895 18907 18909     9 
18899 18895 18907 18910     9 
18903 18895 18907 18908     9 
18903 18895 18907 18909     9 
18903 18895 18907 18910     9 
18895 18896 18911 18912     9 
18895 18896 18911 18913     9 
18895 18896 18911 18917     9 
18897 18896 18911 18912     9 
18897 18896 18911 18913     9 
18897 18896 18911 18917     9 
18898 18896 18911 18912     9 
18898 18896 18911 18913     9 
18898 18896 18911 18917     9 
18896 18911 18917 18914     9 
18912 18911 18917 18914     9 
18913 18911 18917 18914     9 
18915 18914 18917 18911     9 
18916 18914 18917 18911     9 
18918 18914 18917 18911     9 
18915 18914 18918 18919     9 
18916 18914 18918 18919     9 
18917 18914 18918 18919     9 
18914 18918 18919 18920     9 
18914 18918 18919 18921     9 
18914 18918 18919 18922     9 
18918 18919 18922 18923     9 
18918 18919 18922 18924     9 
18918 18919 18922 18930     9 
18920 18919 18922 18923     9 
18920 18919 18922 18924     9 
18920 18919 18922 18930     9 
18921 18919 18922 18923     9 
18921 18919 18922 18924     9 
18921 18919 18922 18930     9 
18919 18922 18924 18925     9 
18923 18922 18924 18925     9 
18930 18922 18924 18925     9 
18919 18922 18930 18931     9 
18919 18922 18930 18932     9 
18919 18922 18930 18933     9 
18923 18922 18930 18931     9 
18923 18922 18930 18932     9 
18923 18922 18930 18933     9 
18924 18922 18930 18931     9 
18924 18922 18930 18932     9 
18924 18922 18930 18933     9 
18922 18924 18925 18926     9 
18922 18924 18925 18927     9 
18924 18925 18927 18928     9 
18924 18925 18927 18929     9 
18924 18925 18927 18939     9 
18926 18925 18927 18928     9 
18926 18925 18927 18929     9 
18926 18925 18927 18939     9 
18925 18927 18939 18940     9 
18925 18927 18939 18941     9 
18925 18927 18939 18942     9 
18928 18927 18939 18940     9 
18928 18927 18939 18941     9 
18928 18927 18939 18942     9 
18929 18927 18939 18940     9 
18929 18927 18939 18941     9 
18929 18927 18939 18942     9 
18922 18930 18933 18934     9 
18931 18930 18933 18934     9 
18932 18930 18933 18934     9 
18930 18933 18934 18935     9 
18930 18933 18934 18936     9 
18933 18934 18936 18937     9 
18933 18934 18936 18938     9 
18933 18934 18936 18986     9 
18935 18934 18936 18937     9 
18935 18934 18936 18938     9 
18935 18934 18936 18986     9 
18934 18936 18986 18987     9 
18934 18936 18986 18988     9 
18934 18936 18986 18989     9 
18937 18936 18986 18987     9 
18937 18936 18986 18988     9 
18937 18936 18986 18989     9 
18938 18936 18986 18987     9 
18938 18936 18986 18988     9 
18938 18936 18986 18989     9 
18927 18939 18942 18943     9 
18927 18939 18942 18944     9 
18927 18939 18942 18945     9 
18940 18939 18942 18943     9 
18940 18939 18942 18944     9 
18940 18939 18942 18945     9 
18941 18939 18942 18943     9 
18941 18939 18942 18944     9 
18941 18939 18942 18945     9 
18939 18942 18945 18946     9 
18939 18942 18945 18947     9 
18939 18942 18945 18948     9 
18943 18942 18945 18946     9 
18943 18942 18945 18947     9 
18943 18942 18945 18948     9 
18944 18942 18945 18946     9 
18944 18942 18945 18947     9 
18944 18942 18945 18948     9 
18942 18945 18948 18949     9 
18942 18945 18948 18950     9 
18942 18945 18948 18951     9 
18946 18945 18948 18949     9 
18946 18945 18948 18950     9 
18946 18945 18948 18951     9 
18947 18945 18948 18949     9 
18947 18945 18948 18950     9 
18947 18945 18948 18951     9 
18945 18948 18951 18952     9 
18945 18948 18951 18953     9 
18945 18948 18951 18954     9 
18949 18948 18951 18952     9 
18949 18948 18951 18953     9 
18949 18948 18951 18954     9 
18950 18948 18951 18952     9 
18950 18948 18951 18953     9 
18950 18948 18951 18954     9 
18948 18951 18954 18955     9 
18948 18951 18954 18956     9 
18948 18951 18954 18957     9 
18952 18951 18954 18955     9 
18952 18951 18954 18956     9 
18952 18951 18954 18957     9 
18953 18951 18954 18955     9 
18953 18951 18954 18956     9 
18953 18951 18954 18957     9 
18951 18954 18957 18958     9 
18951 18954 18957 18959     9 
18955 18954 18957 18958     9 
18955 18954 18957 18959     9 
18956 18954 18957 18958     9 
18956 18954 18957 18959     9 
18954 18957 18959 18960     9 
18954 18957 18959 18961     9 
18958 18957 18959 18960     9 
18958 18957 18959 18961     9 
18957 18959 18961 18962     9 
18957 18959 18961 18963     9 
18957 18959 18961 18964     9 
18960 18959 18961 18962     9 
18960 18959 18961 18963     9 
18960 18959 18961 18964     9 
18959 18961 18964 18965     9 
18959 18961 18964 18966     9 
18959 18961 18964 18967     9 
18962 18961 18964 18965     9 
18962 18961 18964 18966     9 
18962 18961 18964 18967     9 
18963 18961 18964 18965     9 
18963 18961 18964 18966     9 
18963 18961 18964 18967     9 
18961 18964 18967 18968     9 
18961 18964 18967 18969     9 
18961 18964 18967 18970     9 
18965 18964 18967 18968     9 
18965 18964 18967 18969     9 
18965 18964 18967 18970     9 
18966 18964 18967 18968     9 
18966 18964 18967 18969     9 
18966 18964 18967 18970     9 
18964 18967 18970 18971     9 
18964 18967 18970 18972     9 
18964 18967 18970 18973     9 
18968 18967 18970 18971     9 
18968 18967 18970 18972     9 
18968 18967 18970 18973     9 
18969 18967 18970 18971     9 
18969 18967 18970 18972     9 
18969 18967 18970 18973     9 
18967 18970 18973 18974     9 
18967 18970 18973 18975     9 
18967 18970 18973 18976     9 
18971 18970 18973 18974     9 
18971 18970 18973 18975     9 
18971 18970 18973 18976     9 
18972 18970 18973 18974     9 
18972 18970 18973 18975     9 
18972 18970 18973 18976     9 
18970 18973 18976 18977     9 
18970 18973 18976 18978     9 
18970 18973 18976 18979     9 
18974 18973 18976 18977     9 
18974 18973 18976 18978     9 
18974 18973 18976 18979     9 
18975 18973 18976 18977     9 
18975 18973 18976 18978     9 
18975 18973 18976 18979     9 
18973 18976 18979 18980     9 
18973 18976 18979 18981     9 
18973 18976 18979 18982     9 
18977 18976 18979 18980     9 
18977 18976 18979 18981     9 
18977 18976 18979 18982     9 
18978 18976 18979 18980     9 
18978 18976 18979 18981     9 
18978 18976 18979 18982     9 
18976 18979 18982 18983     9 
18976 18979 18982 18984     9 
18976 18979 18982 18985     9 
18980 18979 18982 18983     9 
18980 18979 18982 18984     9 
18980 18979 18982 18985     9 
18981 18979 18982 18983     9 
18981 18979 18982 18984     9 
18981 18979 18982 18985     9 
18936 18986 18989 18990     9 
18936 18986 18989 18991     9 
18936 18986 18989 18992     9 
18987 18986 18989 18990     9 
18987 18986 18989 18991     9 
18987 18986 18989 18992     9 
18988 18986 18989 18990     9 
18988 18986 18989 18991     9 
18988 18986 18989 18992     9 
18986 18989 18992 18993     9 
18986 18989 18992 18994     9 
18986 18989 18992 18995     9 
18990 18989 18992 18993     9 
18990 18989 18992 18994     9 
18990 18989 18992 18995     9 
18991 18989 18992 18993     9 
18991 18989 18992 18994     9 
18991 18989 18992 18995     9 
18989 18992 18995 18996     9 
18989 18992 18995 18997     9 
18989 18992 18995 18998     9 
18993 18992 18995 18996     9 
18993 18992 18995 18997     9 
18993 18992 18995 18998     9 
18994 18992 18995 18996     9 
18994 18992 18995 18997     9 
18994 18992 18995 18998     9 
18992 18995 18998 18999     9 
18992 18995 18998 19000     9 
18992 18995 18998 19001     9 
18996 18995 18998 18999     9 
18996 18995 18998 19000     9 
18996 18995 18998 19001     9 
18997 18995 18998 18999     9 
18997 18995 18998 19000     9 
18997 18995 18998 19001     9 
18995 18998 19001 19002     9 
18995 18998 19001 19003     9 
18995 18998 19001 19004     9 
18999 18998 19001 19002     9 
18999 18998 19001 19003     9 
18999 18998 19001 19004     9 
19000 18998 19001 19002     9 
19000 18998 19001 19003     9 
19000 18998 19001 19004     9 
18998 19001 19004 19005     9 
18998 19001 19004 19006     9 
18998 19001 19004 19007     9 
19002 19001 19004 19005     9 
19002 19001 19004 19006     9 
19002 19001 19004 19007     9 
19003 19001 19004 19005     9 
19003 19001 19004 19006     9 
19003 19001 19004 19007     9 
19001 19004 19007 19008     9 
19001 19004 19007 19009     9 
19001 19004 19007 19010     9 
19005 19004 19007 19008     9 
19005 19004 19007 19009     9 
19005 19004 19007 19010     9 
19006 19004 19007 19008     9 
19006 19004 19007 19009     9 
19006 19004 19007 19010     9 
19004 19007 19010 19011     9 
19004 19007 19010 19012     9 
19004 19007 19010 19013     9 
19008 19007 19010 19011     9 
19008 19007 19010 19012     9 
19008 19007 19010 19013     9 
19009 19007 19010 19011     9 
19009 19007 19010 19012     9 
19009 19007 19010 19013     9 
19007 19010 19013 19014     9 
19007 19010 19013 19015     9 
19007 19010 19013 19016     9 
19011 19010 19013 19014     9 
19011 19010 19013 19015     9 
19011 19010 19013 19016     9 
19012 19010 19013 19014     9 
19012 19010 19013 19015     9 
19012 19010 19013 19016     9 
19010 19013 19016 19017     9 
19010 19013 19016 19018     9 
19010 19013 19016 19019     9 
19014 19013 19016 19017     9 
19014 19013 19016 19018     9 
19014 19013 19016 19019     9 
19015 19013 19016 19017     9 
19015 19013 19016 19018     9 
19015 19013 19016 19019     9 
19013 19016 19019 19020     9 
19013 19016 19019 19021     9 
19013 19016 19019 19022     9 
19017 19016 19019 19020     9 
19017 19016 19019 19021     9 
19017 19016 19019 19022     9 
19018 19016 19019 19020     9 
19018 19016 19019 19021     9 
19018 19016 19019 19022     9 
19016 19019 19022 19023     9 
19016 19019 19022 19024     9 
19016 19019 19022 19025     9 
19020 19019 19022 19023     9 
19020 19019 19022 19024     9 
19020 19019 19022 19025     9 
19021 19019 19022 19023     9 
19021 19019 19022 19024     9 
19021 19019 19022 19025     9 
19019 19022 19025 19026     9 
19019 19022 19025 19027     9 
19019 19022 19025 19028     9 
19023 19022 19025 19026     9 
19023 19022 19025 19027     9 
19023 19022 19025 19028     9 
19024 19022 19025 19026     9 
19024 19022 19025 19027     9 
19024 19022 19025 19028     9 
19033 19029 19030 19031     9 
19033 19029 19030 19032     9 
19033 19029 19030 19045     9 
19037 19029 19030 19031     9 
19037 19029 19030 19032     9 
19037 19029 19030 19045     9 
19041 19029 19030 19031     9 
19041 19029 19030 19032     9 
19041 19029 19030 19045     9 
19030 19029 19033 19034     9 
19030 19029 19033 19035     9 
19030 19029 19033 19036     9 
19037 19029 19033 19034     9 
19037 19029 19033 19035     9 
19037 19029 19033 19036     9 
19041 19029 19033 19034     9 
19041 19029 19033 19035     9 
19041 19029 19033 19036     9 
19030 19029 19037 19038     9 
19030 19029 19037 19039     9 
19030 19029 19037 19040     9 
19033 19029 19037 19038     9 
19033 19029 19037 19039     9 
19033 19029 19037 19040     9 
19041 19029 19037 19038     9 
19041 19029 19037 19039     9 
19041 19029 19037 19040     9 
19030 19029 19041 19042     9 
19030 19029 19041 19043     9 
19030 19029 19041 19044     9 
19033 19029 19041 19042     9 
19033 19029 19041 19043     9 
19033 19029 19041 19044     9 
19037 19029 19041 19042     9 
19037 19029 19041 19043     9 
19037 19029 19041 19044     9 
19029 19030 19045 19046     9 
19029 19030 19045 19047     9 
19029 19030 19045 19051     9 
19031 19030 19045 19046     9 
19031 19030 19045 19047     9 
19031 19030 19045 19051     9 
19032 19030 19045 19046     9 
19032 19030 19045 19047     9 
19032 19030 19045 19051     9 
19030 19045 19051 19048     9 
19046 19045 19051 19048     9 
19047 19045 19051 19048     9 
19049 19048 19051 19045     9 
19050 19048 19051 19045     9 
19052 19048 19051 19045     9 
19049 19048 19052 19053     9 
19050 19048 19052 19053     9 
19051 19048 19052 19053     9 
19048 19052 19053 19054     9 
19048 19052 19053 19055     9 
19048 19052 19053 19056     9 
19052 19053 19056 19057     9 
19052 19053 19056 19058     9 
19052 19053 19056 19064     9 
19054 19053 19056 19057     9 
19054 19053 19056 19058     9 
19054 19053 19056 19064     9 
19055 19053 19056 19057     9 
19055 19053 19056 19058     9 
19055 19053 19056 19064     9 
19053 19056 19058 19059     9 
19057 19056 19058 19059     9 
19064 19056 19058 19059     9 
19053 19056 19064 19065     9 
19053 19056 19064 19066     9 
19053 19056 19064 19067     9 
19057 19056 19064 19065     9 
19057 19056 19064 19066     9 
19057 19056 19064 19067     9 
19058 19056 19064 19065     9 
19058 19056 19064 19066     9 
19058 19056 19064 19067     9 
19056 19058 19059 19060     9 
19056 19058 19059 19061     9 
19058 19059 19061 19062     9 
19058 19059 19061 19063     9 
19058 19059 19061 19073     9 
19060 19059 19061 19062     9 
19060 19059 19061 19063     9 
19060 19059 19061 19073     9 
19059 19061 19073 19074     9 
19059 19061 19073 19075     9 
19059 19061 19073 19076     9 
19062 19061 19073 19074     9 
19062 19061 19073 19075     9 
19062 19061 19073 19076     9 
19063 19061 19073 19074     9 
19063 19061 19073 19075     9 
19063 19061 19073 19076     9 
19056 19064 19067 19068     9 
19065 19064 19067 19068     9 
19066 19064 19067 19068     9 
19064 19067 19068 19069     9 
19064 19067 19068 19070     9 
19067 19068 19070 19071     9 
19067 19068 19070 19072     9 
19067 19068 19070 19120     9 
19069 19068 19070 19071     9 
19069 19068 19070 19072     9 
19069 19068 19070 19120     9 
19068 19070 19120 19121     9 
19068 19070 19120 19122     9 
19068 19070 19120 19123     9 
19071 19070 19120 19121     9 
19071 19070 19120 19122     9 
19071 19070 19120 19123     9 
19072 19070 19120 19121     9 
19072 19070 19120 19122     9 
19072 19070 19120 19123     9 
19061 19073 19076 19077     9 
19061 19073 19076 19078     9 
19061 19073 19076 19079     9 
19074 19073 19076 19077     9 
19074 19073 19076 19078     9 
19074 19073 19076 19079     9 
19075 19073 19076 19077     9 
19075 19073 19076 19078     9 
19075 19073 19076 19079     9 
19073 19076 19079 19080     9 
19073 19076 19079 19081     9 
19073 19076 19079 19082     9 
19077 19076 19079 19080     9 
19077 19076 19079 19081     9 
19077 19076 19079 19082     9 
19078 19076 19079 19080     9 
19078 19076 19079 19081     9 
19078 19076 19079 19082     9 
19076 19079 19082 19083     9 
19076 19079 19082 19084     9 
19076 19079 19082 19085     9 
19080 19079 19082 19083     9 
19080 19079 19082 19084     9 
19080 19079 19082 19085     9 
19081 19079 19082 19083     9 
19081 19079 19082 19084     9 
19081 19079 19082 19085     9 
19079 19082 19085 19086     9 
19079 19082 19085 19087     9 
19079 19082 19085 19088     9 
19083 19082 19085 19086     9 
19083 19082 19085 19087     9 
19083 19082 19085 19088     9 
19084 19082 19085 19086     9 
19084 19082 19085 19087     9 
19084 19082 19085 19088     9 
19082 19085 19088 19089     9 
19082 19085 19088 19090     9 
19082 19085 19088 19091     9 
19086 19085 19088 19089     9 
19086 19085 19088 19090     9 
19086 19085 19088 19091     9 
19087 19085 19088 19089     9 
19087 19085 19088 19090     9 
19087 19085 19088 19091     9 
19085 19088 19091 19092     9 
19085 19088 19091 19093     9 
19089 19088 19091 19092     9 
19089 19088 19091 19093     9 
19090 19088 19091 19092     9 
19090 19088 19091 19093     9 
19088 19091 19093 19094     9 
19088 19091 19093 19095     9 
19092 19091 19093 19094     9 
19092 19091 19093 19095     9 
19091 19093 19095 19096     9 
19091 19093 19095 19097     9 
19091 19093 19095 19098     9 
19094 19093 19095 19096     9 
19094 19093 19095 19097     9 
19094 19093 19095 19098     9 
19093 19095 19098 19099     9 
19093 19095 19098 19100     9 
19093 19095 19098 19101     9 
19096 19095 19098 19099     9 
19096 19095 19098 19100     9 
19096 19095 19098 19101     9 
19097 19095 19098 19099     9 
19097 19095 19098 19100     9 
19097 19095 19098 19101     9 
19095 19098 19101 19102     9 
19095 19098 19101 19103     9 
19095 19098 19101 19104     9 
19099 19098 19101 19102     9 
19099 19098 19101 19103     9 
19099 19098 19101 19104     9 
19100 19098 19101 19102     9 
19100 19098 19101 19103     9 
19100 19098 19101 19104     9 
19098 19101 19104 19105     9 
19098 19101 19104 19106     9 
19098 19101 19104 19107     9 
19102 19101 19104 19105     9 
19102 19101 19104 19106     9 
19102 19101 19104 19107     9 
19103 19101 19104 19105     9 
19103 19101 19104 19106     9 
19103 19101 19104 19107     9 
19101 19104 19107 19108     9 
19101 19104 19107 19109     9 
19101 19104 19107 19110     9 
19105 19104 19107 19108     9 
19105 19104 19107 19109     9 
19105 19104 19107 19110     9 
19106 19104 19107 19108     9 
19106 19104 19107 19109     9 
19106 19104 19107 19110     9 
19104 19107 19110 19111     9 
19104 19107 19110 19112     9 
19104 19107 19110 19113     9 
19108 19107 19110 19111     9 
19108 19107 19110 19112     9 
19108 19107 19110 19113     9 
19109 19107 19110 19111     9 
19109 19107 19110 19112     9 
19109 19107 19110 19113     9 
19107 19110 19113 19114     9 
19107 19110 19113 19115     9 
19107 19110 19113 19116     9 
19111 19110 19113 19114     9 
19111 19110 19113 19115     9 
19111 19110 19113 19116     9 
19112 19110 19113 19114     9 
19112 19110 19113 19115     9 
19112 19110 19113 19116     9 
19110 19113 19116 19117     9 
19110 19113 19116 19118     9 
19110 19113 19116 19119     9 
19114 19113 19116 19117     9 
19114 19113 19116 19118     9 
19114 19113 19116 19119     9 
19115 19113 19116 19117     9 
19115 19113 19116 19118     9 
19115 19113 19116 19119     9 
19070 19120 19123 19124     9 
19070 19120 19123 19125     9 
19070 19120 19123 19126     9 
19121 19120 19123 19124     9 
19121 19120 19123 19125     9 
19121 19120 19123 19126     9 
19122 19120 19123 19124     9 
19122 19120 19123 19125     9 
19122 19120 19123 19126     9 
19120 19123 19126 19127     9 
19120 19123 19126 19128     9 
19120 19123 19126 19129     9 
19124 19123 19126 19127     9 
19124 19123 19126 19128     9 
19124 19123 19126 19129     9 
19125 19123 19126 19127     9 
19125 19123 19126 19128     9 
19125 19123 19126 19129     9 
19123 19126 19129 19130     9 
19123 19126 19129 19131     9 
19123 19126 19129 19132     9 
19127 19126 19129 19130     9 
19127 19126 19129 19131     9 
19127 19126 19129 19132     9 
19128 19126 19129 19130     9 
19128 19126 19129 19131     9 
19128 19126 19129 19132     9 
19126 19129 19132 19133     9 
19126 19129 19132 19134     9 
19126 19129 19132 19135     9 
19130 19129 19132 19133     9 
19130 19129 19132 19134     9 
19130 19129 19132 19135     9 
19131 19129 19132 19133     9 
19131 19129 19132 19134     9 
19131 19129 19132 19135     9 
19129 19132 19135 19136     9 
19129 19132 19135 19137     9 
19129 19132 19135 19138     9 
19133 19132 19135 19136     9 
19133 19132 19135 19137     9 
19133 19132 19135 19138     9 
19134 19132 19135 19136     9 
19134 19132 19135 19137     9 
19134 19132 19135 19138     9 
19132 19135 19138 19139     9 
19132 19135 19138 19140     9 
19132 19135 19138 19141     9 
19136 19135 19138 19139     9 
19136 19135 19138 19140     9 
19136 19135 19138 19141     9 
19137 19135 19138 19139     9 
19137 19135 19138 19140     9 
19137 19135 19138 19141     9 
19135 19138 19141 19142     9 
19135 19138 19141 19143     9 
19135 19138 19141 19144     9 
19139 19138 19141 19142     9 
19139 19138 19141 19143     9 
19139 19138 19141 19144     9 
19140 19138 19141 19142     9 
19140 19138 19141 19143     9 
19140 19138 19141 19144     9 
19138 19141 19144 19145     9 
19138 19141 19144 19146     9 
19138 19141 19144 19147     9 
19142 19141 19144 19145     9 
19142 19141 19144 19146     9 
19142 19141 19144 19147     9 
19143 19141 19144 19145     9 
19143 19141 19144 19146     9 
19143 19141 19144 19147     9 
19141 19144 19147 19148     9 
19141 19144 19147 19149     9 
19141 19144 19147 19150     9 
19145 19144 19147 19148     9 
19145 19144 19147 19149     9 
19145 19144 19147 19150     9 
19146 19144 19147 19148     9 
19146 19144 19147 19149     9 
19146 19144 19147 19150     9 
19144 19147 19150 19151     9 
19144 19147 19150 19152     9 
19144 19147 19150 19153     9 
19148 19147 19150 19151     9 
19148 19147 19150 19152     9 
19148 19147 19150 19153     9 
19149 19147 19150 19151     9 
19149 19147 19150 19152     9 
19149 19147 19150 19153     9 
19147 19150 19153 19154     9 
19147 19150 19153 19155     9 
19147 19150 19153 19156     9 
19151 19150 19153 19154     9 
19151 19150 19153 19155     9 
19151 19150 19153 19156     9 
19152 19150 19153 19154     9 
19152 19150 19153 19155     9 
19152 19150 19153 19156     9 
19150 19153 19156 19157     9 
19150 19153 19156 19158     9 
19150 19153 19156 19159     9 
19154 19153 19156 19157     9 
19154 19153 19156 19158     9 
19154 19153 19156 19159     9 
19155 19153 19156 19157     9 
19155 19153 19156 19158     9 
19155 19153 19156 19159     9 
19153 19156 19159 19160     9 
19153 19156 19159 19161     9 
19153 19156 19159 19162     9 
19157 19156 19159 19160     9 
19157 19156 19159 19161     9 
19157 19156 19159 19162     9 
19158 19156 19159 19160     9 
19158 19156 19159 19161     9 
19158 19156 19159 19162     9 
19167 19163 19164 19165     9 
19167 19163 19164 19166     9 
19167 19163 19164 19179     9 
19171 19163 19164 19165     9 
19171 19163 19164 19166     9 
19171 19163 19164 19179     9 
19175 19163 19164 19165     9 
19175 19163 19164 19166     9 
19175 19163 19164 19179     9 
19164 19163 19167 19168     9 
19164 19163 19167 19169     9 
19164 19163 19167 19170     9 
19171 19163 19167 19168     9 
19171 19163 19167 19169     9 
19171 19163 19167 19170     9 
19175 19163 19167 19168     9 
19175 19163 19167 19169     9 
19175 19163 19167 19170     9 
19164 19163 19171 19172     9 
19164 19163 19171 19173     9 
19164 19163 19171 19174     9 
19167 19163 19171 19172     9 
19167 19163 19171 19173     9 
19167 19163 19171 19174     9 
19175 19163 19171 19172     9 
19175 19163 19171 19173     9 
19175 19163 19171 19174     9 
19164 19163 19175 19176     9 
19164 19163 19175 19177     9 
19164 19163 19175 19178     9 
19167 19163 19175 19176     9 
19167 19163 19175 19177     9 
19167 19163 19175 19178     9 
19171 19163 19175 19176     9 
19171 19163 19175 19177     9 
19171 19163 19175 19178     9 
19163 19164 19179 19180     9 
19163 19164 19179 19181     9 
19163 19164 19179 19185     9 
19165 19164 19179 19180     9 
19165 19164 19179 19181     9 
19165 19164 19179 19185     9 
19166 19164 19179 19180     9 
19166 19164 19179 19181     9 
19166 19164 19179 19185     9 
19164 19179 19185 19182     9 
19180 19179 19185 19182     9 
19181 19179 19185 19182     9 
19183 19182 19185 19179     9 
19184 19182 19185 19179     9 
19186 19182 19185 19179     9 
19183 19182 19186 19187     9 
19184 19182 19186 19187     9 
19185 19182 19186 19187     9 
19182 19186 19187 19188     9 
19182 19186 19187 19189     9 
19182 19186 19187 19190     9 
19186 19187 19190 19191     9 
19186 19187 19190 19192     9 
19186 19187 19190 19198     9 
19188 19187 19190 19191     9 
19188 19187 19190 19192     9 
19188 19187 19190 19198     9 
19189 19187 19190 19191     9 
19189 19187 19190 19192     9 
19189 19187 19190 19198     9 
19187 19190 19192 19193     9 
19191 19190 19192 19193     9 
19198 19190 19192 19193     9 
19187 19190 19198 19199     9 
19187 19190 19198 19200     9 
19187 19190 19198 19201     9 
19191 19190 19198 19199     9 
19191 19190 19198 19200     9 
19191 19190 19198 19201     9 
19192 19190 19198 19199     9 
19192 19190 19198 19200     9 
19192 19190 19198 19201     9 
19190 19192 19193 19194     9 
19190 19192 19193 19195     9 
19192 19193 19195 19196     9 
19192 19193 19195 19197     9 
19192 19193 19195 19207     9 
19194 19193 19195 19196     9 
19194 19193 19195 19197     9 
19194 19193 19195 19207     9 
19193 19195 19207 19208     9 
19193 19195 19207 19209     9 
19193 19195 19207 19210     9 
19196 19195 19207 19208     9 
19196 19195 19207 19209     9 
19196 19195 19207 19210     9 
19197 19195 19207 19208     9 
19197 19195 19207 19209     9 
19197 19195 19207 19210     9 
19190 19198 19201 19202     9 
19199 19198 19201 19202     9 
19200 19198 19201 19202     9 
19198 19201 19202 19203     9 
19198 19201 19202 19204     9 
19201 19202 19204 19205     9 
19201 19202 19204 19206     9 
19201 19202 19204 19254     9 
19203 19202 19204 19205     9 
19203 19202 19204 19206     9 
19203 19202 19204 19254     9 
19202 19204 19254 19255     9 
19202 19204 19254 19256     9 
19202 19204 19254 19257     9 
19205 19204 19254 19255     9 
19205 19204 19254 19256     9 
19205 19204 19254 19257     9 
19206 19204 19254 19255     9 
19206 19204 19254 19256     9 
19206 19204 19254 19257     9 
19195 19207 19210 19211     9 
19195 19207 19210 19212     9 
19195 19207 19210 19213     9 
19208 19207 19210 19211     9 
19208 19207 19210 19212     9 
19208 19207 19210 19213     9 
19209 19207 19210 19211     9 
19209 19207 19210 19212     9 
19209 19207 19210 19213     9 
19207 19210 19213 19214     9 
19207 19210 19213 19215     9 
19207 19210 19213 19216     9 
19211 19210 19213 19214     9 
19211 19210 19213 19215     9 
19211 19210 19213 19216     9 
19212 19210 19213 19214     9 
19212 19210 19213 19215     9 
19212 19210 19213 19216     9 
19210 19213 19216 19217     9 
19210 19213 19216 19218     9 
19210 19213 19216 19219     9 
19214 19213 19216 19217     9 
19214 19213 19216 19218     9 
19214 19213 19216 19219     9 
19215 19213 19216 19217     9 
19215 19213 19216 19218     9 
19215 19213 19216 19219     9 
19213 19216 19219 19220     9 
19213 19216 19219 19221     9 
19213 19216 19219 19222     9 
19217 19216 19219 19220     9 
19217 19216 19219 19221     9 
19217 19216 19219 19222     9 
19218 19216 19219 19220     9 
19218 19216 19219 19221     9 
19218 19216 19219 19222     9 
19216 19219 19222 19223     9 
19216 19219 19222 19224     9 
19216 19219 19222 19225     9 
19220 19219 19222 19223     9 
19220 19219 19222 19224     9 
19220 19219 19222 19225     9 
19221 19219 19222 19223     9 
19221 19219 19222 19224     9 
19221 19219 19222 19225     9 
19219 19222 19225 19226     9 
19219 19222 19225 19227     9 
19223 19222 19225 19226     9 
19223 19222 19225 19227     9 
19224 19222 19225 19226     9 
19224 19222 19225 19227     9 
19222 19225 19227 19228     9 
19222 19225 19227 19229     9 
19226 19225 19227 19228     9 
19226 19225 19227 19229     9 
19225 19227 19229 19230     9 
19225 19227 19229 19231     9 
19225 19227 19229 19232     9 
19228 19227 19229 19230     9 
19228 19227 19229 19231     9 
19228 19227 19229 19232     9 
19227 19229 19232 19233     9 
19227 19229 19232 19234     9 
19227 19229 19232 19235     9 
19230 19229 19232 19233     9 
19230 19229 19232 19234     9 
19230 19229 19232 19235     9 
19231 19229 19232 19233     9 
19231 19229 19232 19234     9 
19231 19229 19232 19235     9 
19229 19232 19235 19236     9 
19229 19232 19235 19237     9 
19229 19232 19235 19238     9 
19233 19232 19235 19236     9 
19233 19232 19235 19237     9 
19233 19232 19235 19238     9 
19234 19232 19235 19236     9 
19234 19232 19235 19237     9 
19234 19232 19235 19238     9 
19232 19235 19238 19239     9 
19232 19235 19238 19240     9 
19232 19235 19238 19241     9 
19236 19235 19238 19239     9 
19236 19235 19238 19240     9 
19236 19235 19238 19241     9 
19237 19235 19238 19239     9 
19237 19235 19238 19240     9 
19237 19235 19238 19241     9 
19235 19238 19241 19242     9 
19235 19238 19241 19243     9 
19235 19238 19241 19244     9 
19239 19238 19241 19242     9 
19239 19238 19241 19243     9 
19239 19238 19241 19244     9 
19240 19238 19241 19242     9 
19240 19238 19241 19243     9 
19240 19238 19241 19244     9 
19238 19241 19244 19245     9 
19238 19241 19244 19246     9 
19238 19241 19244 19247     9 
19242 19241 19244 19245     9 
19242 19241 19244 19246     9 
19242 19241 19244 19247     9 
19243 19241 19244 19245     9 
19243 19241 19244 19246     9 
19243 19241 19244 19247     9 
19241 19244 19247 19248     9 
19241 19244 19247 19249     9 
19241 19244 19247 19250     9 
19245 19244 19247 19248     9 
19245 19244 19247 19249     9 
19245 19244 19247 19250     9 
19246 19244 19247 19248     9 
19246 19244 19247 19249     9 
19246 19244 19247 19250     9 
19244 19247 19250 19251     9 
19244 19247 19250 19252     9 
19244 19247 19250 19253     9 
19248 19247 19250 19251     9 
19248 19247 19250 19252     9 
19248 19247 19250 19253     9 
19249 19247 19250 19251     9 
19249 19247 19250 19252     9 
19249 19247 19250 19253     9 
19204 19254 19257 19258     9 
19204 19254 19257 19259     9 
19204 19254 19257 19260     9 
19255 19254 19257 19258     9 
19255 19254 19257 19259     9 
19255 19254 19257 19260     9 
19256 19254 19257 19258     9 
19256 19254 19257 19259     9 
19256 19254 19257 19260     9 
19254 19257 19260 19261     9 
19254 19257 19260 19262     9 
19254 19257 19260 19263     9 
19258 19257 19260 19261     9 
19258 19257 19260 19262     9 
19258 19257 19260 19263     9 
19259 19257 19260 19261     9 
19259 19257 19260 19262     9 
19259 19257 19260 19263     9 
19257 19260 19263 19264     9 
19257 19260 19263 19265     9 
19257 19260 19263 19266     9 
19261 19260 19263 19264     9 
19261 19260 19263 19265     9 
19261 19260 19263 19266     9 
19262 19260 19263 19264     9 
19262 19260 19263 19265     9 
19262 19260 19263 19266     9 
19260 19263 19266 19267     9 
19260 19263 19266 19268     9 
19260 19263 19266 19269     9 
19264 19263 19266 19267     9 
19264 19263 19266 19268     9 
19264 19263 19266 19269     9 
19265 19263 19266 19267     9 
19265 19263 19266 19268     9 
19265 19263 19266 19269     9 
19263 19266 19269 19270     9 
19263 19266 19269 19271     9 
19263 19266 19269 19272     9 
19267 19266 19269 19270     9 
19267 19266 19269 19271     9 
19267 19266 19269 19272     9 
19268 19266 19269 19270     9 
19268 19266 19269 19271     9 
19268 19266 19269 19272     9 
19266 19269 19272 19273     9 
19266 19269 19272 19274     9 
19266 19269 19272 19275     9 
19270 19269 19272 19273     9 
19270 19269 19272 19274     9 
19270 19269 19272 19275     9 
19271 19269 19272 19273     9 
19271 19269 19272 19274     9 
19271 19269 19272 19275     9 
19269 19272 19275 19276     9 
19269 19272 19275 19277     9 
19269 19272 19275 19278     9 
19273 19272 19275 19276     9 
19273 19272 19275 19277     9 
19273 19272 19275 19278     9 
19274 19272 19275 19276     9 
19274 19272 19275 19277     9 
19274 19272 19275 19278     9 
19272 19275 19278 19279     9 
19272 19275 19278 19280     9 
19272 19275 19278 19281     9 
19276 19275 19278 19279     9 
19276 19275 19278 19280     9 
19276 19275 19278 19281     9 
19277 19275 19278 19279     9 
19277 19275 19278 19280     9 
19277 19275 19278 19281     9 
19275 19278 19281 19282     9 
19275 19278 19281 19283     9 
19275 19278 19281 19284     9 
19279 19278 19281 19282     9 
19279 19278 19281 19283     9 
19279 19278 19281 19284     9 
19280 19278 19281 19282     9 
19280 19278 19281 19283     9 
19280 19278 19281 19284     9 
19278 19281 19284 19285     9 
19278 19281 19284 19286     9 
19278 19281 19284 19287     9 
19282 19281 19284 19285     9 
19282 19281 19284 19286     9 
19282 19281 19284 19287     9 
19283 19281 19284 19285     9 
19283 19281 19284 19286     9 
19283 19281 19284 19287     9 
19281 19284 19287 19288     9 
19281 19284 19287 19289     9 
19281 19284 19287 19290     9 
19285 19284 19287 19288     9 
19285 19284 19287 19289     9 
19285 19284 19287 19290     9 
19286 19284 19287 19288     9 
19286 19284 19287 19289     9 
19286 19284 19287 19290     9 
19284 19287 19290 19291     9 
19284 19287 19290 19292     9 
19284 19287 19290 19293     9 
19288 19287 19290 19291     9 
19288 19287 19290 19292     9 
19288 19287 19290 19293     9 
19289 19287 19290 19291     9 
19289 19287 19290 19292     9 
19289 19287 19290 19293     9 
19287 19290 19293 19294     9 
19287 19290 19293 19295     9 
19287 19290 19293 19296     9 
19291 19290 19293 19294     9 
19291 19290 19293 19295     9 
19291 19290 19293 19296     9 
19292 19290 19293 19294     9 
19292 19290 19293 19295     9 
19292 19290 19293 19296     9 
19301 19297 19298 19299     9 
19301 19297 19298 19300     9 
19301 19297 19298 19313     9 
19305 19297 19298 19299     9 
19305 19297 19298 19300     9 
19305 19297 19298 19313     9 
19309 19297 19298 19299     9 
19309 19297 19298 19300     9 
19309 19297 19298 19313     9 
19298 19297 19301 19302     9 
19298 19297 19301 19303     9 
19298 19297 19301 19304     9 
19305 19297 19301 19302     9 
19305 19297 19301 19303     9 
19305 19297 19301 19304     9 
19309 19297 19301 19302     9 
19309 19297 19301 19303     9 
19309 19297 19301 19304     9 
19298 19297 19305 19306     9 
19298 19297 19305 19307     9 
19298 19297 19305 19308     9 
19301 19297 19305 19306     9 
19301 19297 19305 19307     9 
19301 19297 19305 19308     9 
19309 19297 19305 19306     9 
19309 19297 19305 19307     9 
19309 19297 19305 19308     9 
19298 19297 19309 19310     9 
19298 19297 19309 19311     9 
19298 19297 19309 19312     9 
19301 19297 19309 19310     9 
19301 19297 19309 19311     9 
19301 19297 19309 19312     9 
19305 19297 19309 19310     9 
19305 19297 19309 19311     9 
19305 19297 19309 19312     9 
19297 19298 19313 19314     9 
19297 19298 19313 19315     9 
19297 19298 19313 19319     9 
19299 19298 19313 19314     9 
19299 19298 19313 19315     9 
19299 19298 19313 19319     9 
19300 19298 19313 19314     9 
19300 19298 19313 19315     9 
19300 19298 19313 19319     9 
19298 19313 19319 19316     9 
19314 19313 19319 19316     9 
19315 19313 19319 19316     9 
19317 19316 19319 19313     9 
19318 19316 19319 19313     9 
19320 19316 19319 19313     9 
19317 19316 19320 19321     9 
19318 19316 19320 19321     9 
19319 19316 19320 19321     9 
19316 19320 19321 19322     9 
19316 19320 19321 19323     9 
19316 19320 19321 19324     9 
19320 19321 19324 19325     9 
19320 19321 19324 19326     9 
19320 19321 19324 19332     9 
19322 19321 19324 19325     9 
19322 19321 19324 19326     9 
19322 19321 19324 19332     9 
19323 19321 19324 19325     9 
19323 19321 19324 19326     9 
19323 19321 19324 19332     9 
19321 19324 19326 19327     9 
19325 19324 19326 19327     9 
19332 19324 19326 19327     9 
19321 19324 19332 19333     9 
19321 19324 19332 19334     9 
19321 19324 19332 19335     9 
19325 19324 19332 19333     9 
19325 19324 19332 19334     9 
19325 19324 19332 19335     9 
19326 19324 19332 19333     9 
19326 19324 19332 19334     9 
19326 19324 19332 19335     9 
19324 19326 19327 19328     9 
19324 19326 19327 19329     9 
19326 19327 19329 19330     9 
19326 19327 19329 19331     9 
19326 19327 19329 19341     9 
19328 19327 19329 19330     9 
19328 19327 19329 19331     9 
19328 19327 19329 19341     9 
19327 19329 19341 19342     9 
19327 19329 19341 19343     9 
19327 19329 19341 19344     9 
19330 19329 19341 19342     9 
19330 19329 19341 19343     9 
19330 19329 19341 19344     9 
19331 19329 19341 19342     9 
19331 19329 19341 19343     9 
19331 19329 19341 19344     9 
19324 19332 19335 19336     9 
19333 19332 19335 19336     9 
19334 19332 19335 19336     9 
19332 19335 19336 19337     9 
19332 19335 19336 19338     9 
19335 19336 19338 19339     9 
19335 19336 19338 19340     9 
19335 19336 19338 19388     9 
19337 19336 19338 19339     9 
19337 19336 19338 19340     9 
19337 19336 19338 19388     9 
19336 19338 19388 19389     9 
19336 19338 19388 19390     9 
19336 19338 19388 19391     9 
19339 19338 19388 19389     9 
19339 19338 19388 19390     9 
19339 19338 19388 19391     9 
19340 19338 19388 19389     9 
19340 19338 19388 19390     9 
19340 19338 19388 19391     9 
19329 19341 19344 19345     9 
19329 19341 19344 19346     9 
19329 19341 19344 19347     9 
19342 19341 19344 19345     9 
19342 19341 19344 19346     9 
19342 19341 19344 19347     9 
19343 19341 19344 19345     9 
19343 19341 19344 19346     9 
19343 19341 19344 19347     9 
19341 19344 19347 19348     9 
19341 19344 19347 19349     9 
19341 19344 19347 19350     9 
19345 19344 19347 19348     9 
19345 19344 19347 19349     9 
19345 19344 19347 19350     9 
19346 19344 19347 19348     9 
19346 19344 19347 19349     9 
19346 19344 19347 19350     9 
19344 19347 19350 19351     9 
19344 19347 19350 19352     9 
19344 19347 19350 19353     9 
19348 19347 19350 19351     9 
19348 19347 19350 19352     9 
19348 19347 19350 19353     9 
19349 19347 19350 19351     9 
19349 19347 19350 19352     9 
19349 19347 19350 19353     9 
19347 19350 19353 19354     9 
19347 19350 19353 19355     9 
19347 19350 19353 19356     9 
19351 19350 19353 19354     9 
19351 19350 19353 19355     9 
19351 19350 19353 19356     9 
19352 19350 19353 19354     9 
19352 19350 19353 19355     9 
19352 19350 19353 19356     9 
19350 19353 19356 19357     9 
19350 19353 19356 19358     9 
19350 19353 19356 19359     9 
19354 19353 19356 19357     9 
19354 19353 19356 19358     9 
19354 19353 19356 19359     9 
19355 19353 19356 19357     9 
19355 19353 19356 19358     9 
19355 19353 19356 19359     9 
19353 19356 19359 19360     9 
19353 19356 19359 19361     9 
19357 19356 19359 19360     9 
19357 19356 19359 19361     9 
19358 19356 19359 19360     9 
19358 19356 19359 19361     9 
19356 19359 19361 19362     9 
19356 19359 19361 19363     9 
19360 19359 19361 19362     9 
19360 19359 19361 19363     9 
19359 19361 19363 19364     9 
19359 19361 19363 19365     9 
19359 19361 19363 19366     9 
19362 19361 19363 19364     9 
19362 19361 19363 19365     9 
19362 19361 19363 19366     9 
19361 19363 19366 19367     9 
19361 19363 19366 19368     9 
19361 19363 19366 19369     9 
19364 19363 19366 19367     9 
19364 19363 19366 19368     9 
19364 19363 19366 19369     9 
19365 19363 19366 19367     9 
19365 19363 19366 19368     9 
19365 19363 19366 19369     9 
19363 19366 19369 19370     9 
19363 19366 19369 19371     9 
19363 19366 19369 19372     9 
19367 19366 19369 19370     9 
19367 19366 19369 19371     9 
19367 19366 19369 19372     9 
19368 19366 19369 19370     9 
19368 19366 19369 19371     9 
19368 19366 19369 19372     9 
19366 19369 19372 19373     9 
19366 19369 19372 19374     9 
19366 19369 19372 19375     9 
19370 19369 19372 19373     9 
19370 19369 19372 19374     9 
19370 19369 19372 19375     9 
19371 19369 19372 19373     9 
19371 19369 19372 19374     9 
19371 19369 19372 19375     9 
19369 19372 19375 19376     9 
19369 19372 19375 19377     9 
19369 19372 19375 19378     9 
19373 19372 19375 19376     9 
19373 19372 19375 19377     9 
19373 19372 19375 19378     9 
19374 19372 19375 19376     9 
19374 19372 19375 19377     9 
19374 19372 19375 19378     9 
19372 19375 19378 19379     9 
19372 19375 19378 19380     9 
19372 19375 19378 19381     9 
19376 19375 19378 19379     9 
19376 19375 19378 19380     9 
19376 19375 19378 19381     9 
19377 19375 19378 19379     9 
19377 19375 19378 19380     9 
19377 19375 19378 19381     9 
19375 19378 19381 19382     9 
19375 19378 19381 19383     9 
19375 19378 19381 19384     9 
19379 19378 19381 19382     9 
19379 19378 19381 19383     9 
19379 19378 19381 19384     9 
19380 19378 19381 19382     9 
19380 19378 19381 19383     9 
19380 19378 19381 19384     9 
19378 19381 19384 19385     9 
19378 19381 19384 19386     9 
19378 19381 19384 19387     9 
19382 19381 19384 19385     9 
19382 19381 19384 19386     9 
19382 19381 19384 19387     9 
19383 19381 19384 19385     9 
19383 19381 19384 19386     9 
19383 19381 19384 19387     9 
19338 19388 19391 19392     9 
19338 19388 19391 19393     9 
19338 19388 19391 19394     9 
19389 19388 19391 19392     9 
19389 19388 19391 19393     9 
19389 19388 19391 19394     9 
19390 19388 19391 19392     9 
19390 19388 19391 19393     9 
19390 19388 19391 19394     9 
19388 19391 19394 19395     9 
19388 19391 19394 19396     9 
19388 19391 19394 19397     9 
19392 19391 19394 19395     9 
19392 19391 19394 19396     9 
19392 19391 19394 19397     9 
19393 19391 19394 19395     9 
19393 19391 19394 19396     9 
19393 19391 19394 19397     9 
19391 19394 19397 19398     9 
19391 19394 19397 19399     9 
19391 19394 19397 19400     9 
19395 19394 19397 19398     9 
19395 19394 19397 19399     9 
19395 19394 19397 19400     9 
19396 19394 19397 19398     9 
19396 19394 19397 19399     9 
19396 19394 19397 19400     9 
19394 19397 19400 19401     9 
19394 19397 19400 19402     9 
19394 19397 19400 19403     9 
19398 19397 19400 19401     9 
19398 19397 19400 19402     9 
19398 19397 19400 19403     9 
19399 19397 19400 19401     9 
19399 19397 19400 19402     9 
19399 19397 19400 19403     9 
19397 19400 19403 19404     9 
19397 19400 19403 19405     9 
19397 19400 19403 19406     9 
19401 19400 19403 19404     9 
19401 19400 19403 19405     9 
19401 19400 19403 19406     9 
19402 19400 19403 19404     9 
19402 19400 19403 19405     9 
19402 19400 19403 19406     9 
19400 19403 19406 19407     9 
19400 19403 19406 19408     9 
19400 19403 19406 19409     9 
19404 19403 19406 19407     9 
19404 19403 19406 19408     9 
19404 19403 19406 19409     9 
19405 19403 19406 19407     9 
19405 19403 19406 19408     9 
19405 19403 19406 19409     9 
19403 19406 19409 19410     9 
19403 19406 19409 19411     9 
19403 19406 19409 19412     9 
19407 19406 19409 19410     9 
19407 19406 19409 19411     9 
19407 19406 19409 19412     9 
19408 19406 19409 19410     9 
19408 19406 19409 19411     9 
19408 19406 19409 19412     9 
19406 19409 19412 19413     9 
19406 19409 19412 19414     9 
19406 19409 19412 19415     9 
19410 19409 19412 19413     9 
19410 19409 19412 19414     9 
19410 19409 19412 19415     9 
19411 19409 19412 19413     9 
19411 19409 19412 19414     9 
19411 19409 19412 19415     9 
19409 19412 19415 19416     9 
19409 19412 19415 19417     9 
19409 19412 19415 19418     9 
19413 19412 19415 19416     9 
19413 19412 19415 19417     9 
19413 19412 19415 19418     9 
19414 19412 19415 19416     9 
19414 19412 19415 19417     9 
19414 19412 19415 19418     9 
19412 19415 19418 19419     9 
19412 19415 19418 19420     9 
19412 19415 19418 19421     9 
19416 19415 19418 19419     9 
19416 19415 19418 19420     9 
19416 19415 19418 19421     9 
19417 19415 19418 19419     9 
19417 19415 19418 19420     9 
19417 19415 19418 19421     9 
19415 19418 19421 19422     9 
19415 19418 19421 19423     9 
19415 19418 19421 19424     9 
19419 19418 19421 19422     9 
19419 19418 19421 19423     9 
19419 19418 19421 19424     9 
19420 19418 19421 19422     9 
19420 19418 19421 19423     9 
19420 19418 19421 19424     9 
19418 19421 19424 19425     9 
19418 19421 19424 19426     9 
19418 19421 19424 19427     9 
19422 19421 19424 19425     9 
19422 19421 19424 19426     9 
19422 19421 19424 19427     9 
19423 19421 19424 19425     9 
19423 19421 19424 19426     9 
19423 19421 19424 19427     9 
19421 19424 19427 19428     9 
19421 19424 19427 19429     9 
19421 19424 19427 19430     9 
19425 19424 19427 19428     9 
19425 19424 19427 19429     9 
19425 19424 19427 19430     9 
19426 19424 19427 19428     9 
19426 19424 19427 19429     9 
19426 19424 19427 19430     9 
19435 19431 19432 19433     9 
19435 19431 19432 19434     9 
19435 19431 19432 19447     9 
19439 19431 19432 19433     9 
19439 19431 19432 19434     9 
19439 19431 19432 19447     9 
19443 19431 19432 19433     9 
19443 19431 19432 19434     9 
19443 19431 19432 19447     9 
19432 19431 19435 19436     9 
19432 19431 19435 19437     9 
19432 19431 19435 19438     9 
19439 19431 19435 19436     9 
19439 19431 19435 19437     9 
19439 19431 19435 19438     9 
19443 19431 19435 19436     9 
19443 19431 19435 19437     9 
19443 19431 19435 19438     9 
19432 19431 19439 19440     9 
19432 19431 19439 19441     9 
19432 19431 19439 19442     9 
19435 19431 19439 19440     9 
19435 19431 19439 19441     9 
19435 19431 19439 19442     9 
19443 19431 19439 19440     9 
19443 19431 19439 19441     9 
19443 19431 19439 19442     9 
19432 19431 19443 19444     9 
19432 19431 19443 19445     9 
19432 19431 19443 19446     9 
19435 19431 19443 19444     9 
19435 19431 19443 19445     9 
19435 19431 19443 19446     9 
19439 19431 19443 19444     9 
19439 19431 19443 19445     9 
19439 19431 19443 19446     9 
19431 19432 19447 19448     9 
19431 19432 19447 19449     9 
19431 19432 19447 19453     9 
19433 19432 19447 19448     9 
19433 19432 19447 19449     9 
19433 19432 19447 19453     9 
19434 19432 19447 19448     9 
19434 19432 19447 19449     9 
19434 19432 19447 19453     9 
19432 19447 19453 19450     9 
19448 19447 19453 19450     9 
19449 19447 19453 19450     9 
19451 19450 19453 19447     9 
19452 19450 19453 19447     9 
19454 19450 19453 19447     9 
19451 19450 19454 19455     9 
19452 19450 19454 19455     9 
19453 19450 19454 19455     9 
19450 19454 19455 19456     9 
19450 19454 19455 19457     9 
19450 19454 19455 19458     9 
19454 19455 19458 19459     9 
19454 19455 19458 19460     9 
19454 19455 19458 19466     9 
19456 19455 19458 19459     9 
19456 19455 19458 19460     9 
19456 19455 19458 19466     9 
19457 19455 19458 19459     9 
19457 19455 19458 19460     9 
19457 19455 19458 19466     9 
19455 19458 19460 19461     9 
19459 19458 19460 19461     9 
19466 19458 19460 19461     9 
19455 19458 19466 19467     9 
19455 19458 19466 19468     9 
19455 19458 19466 19469     9 
19459 19458 19466 19467     9 
19459 19458 19466 19468     9 
19459 19458 19466 19469     9 
19460 19458 19466 19467     9 
19460 19458 19466 19468     9 
19460 19458 19466 19469     9 
19458 19460 19461 19462     9 
19458 19460 19461 19463     9 
19460 19461 19463 19464     9 
19460 19461 19463 19465     9 
19460 19461 19463 19475     9 
19462 19461 19463 19464     9 
19462 19461 19463 19465     9 
19462 19461 19463 19475     9 
19461 19463 19475 19476     9 
19461 19463 19475 19477     9 
19461 19463 19475 19478     9 
19464 19463 19475 19476     9 
19464 19463 19475 19477     9 
19464 19463 19475 19478     9 
19465 19463 19475 19476     9 
19465 19463 19475 19477     9 
19465 19463 19475 19478     9 
19458 19466 19469 19470     9 
19467 19466 19469 19470     9 
19468 19466 19469 19470     9 
19466 19469 19470 19471     9 
19466 19469 19470 19472     9 
19469 19470 19472 19473     9 
19469 19470 19472 19474     9 
19469 19470 19472 19522     9 
19471 19470 19472 19473     9 
19471 19470 19472 19474     9 
19471 19470 19472 19522     9 
19470 19472 19522 19523     9 
19470 19472 19522 19524     9 
19470 19472 19522 19525     9 
19473 19472 19522 19523     9 
19473 19472 19522 19524     9 
19473 19472 19522 19525     9 
19474 19472 19522 19523     9 
19474 19472 19522 19524     9 
19474 19472 19522 19525     9 
19463 19475 19478 19479     9 
19463 19475 19478 19480     9 
19463 19475 19478 19481     9 
19476 19475 19478 19479     9 
19476 19475 19478 19480     9 
19476 19475 19478 19481     9 
19477 19475 19478 19479     9 
19477 19475 19478 19480     9 
19477 19475 19478 19481     9 
19475 19478 19481 19482     9 
19475 19478 19481 19483     9 
19475 19478 19481 19484     9 
19479 19478 19481 19482     9 
19479 19478 19481 19483     9 
19479 19478 19481 19484     9 
19480 19478 19481 19482     9 
19480 19478 19481 19483     9 
19480 19478 19481 19484     9 
19478 19481 19484 19485     9 
19478 19481 19484 19486     9 
19478 19481 19484 19487     9 
19482 19481 19484 19485     9 
19482 19481 19484 19486     9 
19482 19481 19484 19487     9 
19483 19481 19484 19485     9 
19483 19481 19484 19486     9 
19483 19481 19484 19487     9 
19481 19484 19487 19488     9 
19481 19484 19487 19489     9 
19481 19484 19487 19490     9 
19485 19484 19487 19488     9 
19485 19484 19487 19489     9 
19485 19484 19487 19490     9 
19486 19484 19487 19488     9 
19486 19484 19487 19489     9 
19486 19484 19487 19490     9 
19484 19487 19490 19491     9 
19484 19487 19490 19492     9 
19484 19487 19490 19493     9 
19488 19487 19490 19491     9 
19488 19487 19490 19492     9 
19488 19487 19490 19493     9 
19489 19487 19490 19491     9 
19489 19487 19490 19492     9 
19489 19487 19490 19493     9 
19487 19490 19493 19494     9 
19487 19490 19493 19495     9 
19491 19490 19493 19494     9 
19491 19490 19493 19495     9 
19492 19490 19493 19494     9 
19492 19490 19493 19495     9 
19490 19493 19495 19496     9 
19490 19493 19495 19497     9 
19494 19493 19495 19496     9 
19494 19493 19495 19497     9 
19493 19495 19497 19498     9 
19493 19495 19497 19499     9 
19493 19495 19497 19500     9 
19496 19495 19497 19498     9 
19496 19495 19497 19499     9 
19496 19495 19497 19500     9 
19495 19497 19500 19501     9 
19495 19497 19500 19502     9 
19495 19497 19500 19503     9 
19498 19497 19500 19501     9 
19498 19497 19500 19502     9 
19498 19497 19500 19503     9 
19499 19497 19500 19501     9 
19499 19497 19500 19502     9 
19499 19497 19500 19503     9 
19497 19500 19503 19504     9 
19497 19500 19503 19505     9 
19497 19500 19503 19506     9 
19501 19500 19503 19504     9 
19501 19500 19503 19505     9 
19501 19500 19503 19506     9 
19502 19500 19503 19504     9 
19502 19500 19503 19505     9 
19502 19500 19503 19506     9 
19500 19503 19506 19507     9 
19500 19503 19506 19508     9 
19500 19503 19506 19509     9 
19504 19503 19506 19507     9 
19504 19503 19506 19508     9 
19504 19503 19506 19509     9 
19505 19503 19506 19507     9 
19505 19503 19506 19508     9 
19505 19503 19506 19509     9 
19503 19506 19509 19510     9 
19503 19506 19509 19511     9 
19503 19506 19509 19512     9 
19507 19506 19509 19510     9 
19507 19506 19509 19511     9 
19507 19506 19509 19512     9 
19508 19506 19509 19510     9 
19508 19506 19509 19511     9 
19508 19506 19509 19512     9 
19506 19509 19512 19513     9 
19506 19509 19512 19514     9 
19506 19509 19512 19515     9 
19510 19509 19512 19513     9 
19510 19509 19512 19514     9 
19510 19509 19512 19515     9 
19511 19509 19512 19513     9 
19511 19509 19512 19514     9 
19511 19509 19512 19515     9 
19509 19512 19515 19516     9 
19509 19512 19515 19517     9 
19509 19512 19515 19518     9 
19513 19512 19515 19516     9 
19513 19512 19515 19517     9 
19513 19512 19515 19518     9 
19514 19512 19515 19516     9 
19514 19512 19515 19517     9 
19514 19512 19515 19518     9 
19512 19515 19518 19519     9 
19512 19515 19518 19520     9 
19512 19515 19518 19521     9 
19516 19515 19518 19519     9 
19516 19515 19518 19520     9 
19516 19515 19518 19521     9 
19517 19515 19518 19519     9 
19517 19515 19518 19520     9 
19517 19515 19518 19521     9 
19472 19522 19525 19526     9 
19472 19522 19525 19527     9 
19472 19522 19525 19528     9 
19523 19522 19525 19526     9 
19523 19522 19525 19527     9 
19523 19522 19525 19528     9 
19524 19522 19525 19526     9 
19524 19522 19525 19527     9 
19524 19522 19525 19528     9 
19522 19525 19528 19529     9 
19522 19525 19528 19530     9 
19522 19525 19528 19531     9 
19526 19525 19528 19529     9 
19526 19525 19528 19530     9 
19526 19525 19528 19531     9 
19527 19525 19528 19529     9 
19527 19525 19528 19530     9 
19527 19525 19528 19531     9 
19525 19528 19531 19532     9 
19525 19528 19531 19533     9 
19525 19528 19531 19534     9 
19529 19528 19531 19532     9 
19529 19528 19531 19533     9 
19529 19528 19531 19534     9 
19530 19528 19531 19532     9 
19530 19528 19531 19533     9 
19530 19528 19531 19534     9 
19528 19531 19534 19535     9 
19528 19531 19534 19536     9 
19528 19531 19534 19537     9 
19532 19531 19534 19535     9 
19532 19531 19534 19536     9 
19532 19531 19534 19537     9 
19533 19531 19534 19535     9 
19533 19531 19534 19536     9 
19533 19531 19534 19537     9 
19531 19534 19537 19538     9 
19531 19534 19537 19539     9 
19531 19534 19537 19540     9 
19535 19534 19537 19538     9 
19535 19534 19537 19539     9 
19535 19534 19537 19540     9 
19536 19534 19537 19538     9 
19536 19534 19537 19539     9 
19536 19534 19537 19540     9 
19534 19537 19540 19541     9 
19534 19537 19540 19542     9 
19534 19537 19540 19543     9 
19538 19537 19540 19541     9 
19538 19537 19540 19542     9 
19538 19537 19540 19543     9 
19539 19537 19540 19541     9 
19539 19537 19540 19542     9 
19539 19537 19540 19543     9 
19537 19540 19543 19544     9 
19537 19540 19543 19545     9 
19537 19540 19543 19546     9 
19541 19540 19543 19544     9 
19541 19540 19543 19545     9 
19541 19540 19543 19546     9 
19542 19540 19543 19544     9 
19542 19540 19543 19545     9 
19542 19540 19543 19546     9 
19540 19543 19546 19547     9 
19540 19543 19546 19548     9 
19540 19543 19546 19549     9 
19544 19543 19546 19547     9 
19544 19543 19546 19548     9 
19544 19543 19546 19549     9 
19545 19543 19546 19547     9 
19545 19543 19546 19548     9 
19545 19543 19546 19549     9 
19543 19546 19549 19550     9 
19543 19546 19549 19551     9 
19543 19546 19549 19552     9 
19547 19546 19549 19550     9 
19547 19546 19549 19551     9 
19547 19546 19549 19552     9 
19548 19546 19549 19550     9 
19548 19546 19549 19551     9 
19548 19546 19549 19552     9 
19546 19549 19552 19553     9 
19546 19549 19552 19554     9 
19546 19549 19552 19555     9 
19550 19549 19552 19553     9 
19550 19549 19552 19554     9 
19550 19549 19552 19555     9 
19551 19549 19552 19553     9 
19551 19549 19552 19554     9 
19551 19549 19552 19555     9 
19549 19552 19555 19556     9 
19549 19552 19555 19557     9 
19549 19552 19555 19558     9 
19553 19552 19555 19556     9 
19553 19552 19555 19557     9 
19553 19552 19555 19558     9 
19554 19552 19555 19556     9 
19554 19552 19555 19557     9 
19554 19552 19555 19558     9 
19552 19555 19558 19559     9 
19552 19555 19558 19560     9 
19552 19555 19558 19561     9 
19556 19555 19558 19559     9 
19556 19555 19558 19560     9 
19556 19555 19558 19561     9 
19557 19555 19558 19559     9 
19557 19555 19558 19560     9 
19557 19555 19558 19561     9 
19555 19558 19561 19562     9 
19555 19558 19561 19563     9 
19555 19558 19561 19564     9 
19559 19558 19561 19562     9 
19559 19558 19561 19563     9 
19559 19558 19561 19564     9 
19560 19558 19561 19562     9 
19560 19558 19561 19563     9 
19560 19558 19561 19564     9 
19569 19565 19566 19567     9 
19569 19565 19566 19568     9 
19569 19565 19566 19581     9 
19573 19565 19566 19567     9 
19573 19565 19566 19568     9 
19573 19565 19566 19581     9 
19577 19565 19566 19567     9 
19577 19565 19566 19568     9 
19577 19565 19566 19581     9 
19566 19565 19569 19570     9 
19566 19565 19569 19571     9 
19566 19565 19569 19572     9 
19573 19565 19569 19570     9 
19573 19565 19569 19571     9 
19573 19565 19569 19572     9 
19577 19565 19569 19570     9 
19577 19565 19569 19571     9 
19577 19565 19569 19572     9 
19566 19565 19573 19574     9 
19566 19565 19573 19575     9 
19566 19565 19573 19576     9 
19569 19565 19573 19574     9 
19569 19565 19573 19575     9 
19569 19565 19573 19576     9 
19577 19565 19573 19574     9 
19577 19565 19573 19575     9 
19577 19565 19573 19576     9 
19566 19565 19577 19578     9 
19566 19565 19577 19579     9 
19566 19565 19577 19580     9 
19569 19565 19577 19578     9 
19569 19565 19577 19579     9 
19569 19565 19577 19580     9 
19573 19565 19577 19578     9 
19573 19565 19577 19579     9 
19573 19565 19577 19580     9 
19565 19566 19581 19582     9 
19565 19566 19581 19583     9 
19565 19566 19581 19587     9 
19567 19566 19581 19582     9 
19567 19566 19581 19583     9 
19567 19566 19581 19587     9 
19568 19566 19581 19582     9 
19568 19566 19581 19583     9 
19568 19566 19581 19587     9 
19566 19581 19587 19584     9 
19582 19581 19587 19584     9 
19583 19581 19587 19584     9 
19585 19584 19587 19581     9 
19586 19584 19587 19581     9 
19588 19584 19587 19581     9 
19585 19584 19588 19589     9 
19586 19584 19588 19589     9 
19587 19584 19588 19589     9 
19584 19588 19589 19590     9 
19584 19588 19589 19591     9 
19584 19588 19589 19592     9 
19588 19589 19592 19593     9 
19588 19589 19592 19594     9 
19588 19589 19592 19600     9 
19590 19589 19592 19593     9 
19590 19589 19592 19594     9 
19590 19589 19592 19600     9 
19591 19589 19592 19593     9 
19591 19589 19592 19594     9 
19591 19589 19592 19600     9 
19589 19592 19594 19595     9 
19593 19592 19594 19595     9 
19600 19592 19594 19595     9 
19589 19592 19600 19601     9 
19589 19592 19600 19602     9 
19589 19592 19600 19603     9 
19593 19592 19600 19601     9 
19593 19592 19600 19602     9 
19593 19592 19600 19603     9 
19594 19592 19600 19601     9 
19594 19592 19600 19602     9 
19594 19592 19600 19603     9 
19592 19594 19595 19596     9 
19592 19594 19595 19597     9 
19594 19595 19597 19598     9 
19594 19595 19597 19599     9 
19594 19595 19597 19609     9 
19596 19595 19597 19598     9 
19596 19595 19597 19599     9 
19596 19595 19597 19609     9 
19595 19597 19609 19610     9 
19595 19597 19609 19611     9 
19595 19597 19609 19612     9 
19598 19597 19609 19610     9 
19598 19597 19609 19611     9 
19598 19597 19609 19612     9 
19599 19597 19609 19610     9 
19599 19597 19609 19611     9 
19599 19597 19609 19612     9 
19592 19600 19603 19604     9 
19601 19600 19603 19604     9 
19602 19600 19603 19604     9 
19600 19603 19604 19605     9 
19600 19603 19604 19606     9 
19603 19604 19606 19607     9 
19603 19604 19606 19608     9 
19603 19604 19606 19656     9 
19605 19604 19606 19607     9 
19605 19604 19606 19608     9 
19605 19604 19606 19656     9 
19604 19606 19656 19657     9 
19604 19606 19656 19658     9 
19604 19606 19656 19659     9 
19607 19606 19656 19657     9 
19607 19606 19656 19658     9 
19607 19606 19656 19659     9 
19608 19606 19656 19657     9 
19608 19606 19656 19658     9 
19608 19606 19656 19659     9 
19597 19609 19612 19613     9 
19597 19609 19612 19614     9 
19597 19609 19612 19615     9 
19610 19609 19612 19613     9 
19610 19609 19612 19614     9 
19610 19609 19612 19615     9 
19611 19609 19612 19613     9 
19611 19609 19612 19614     9 
19611 19609 19612 19615     9 
19609 19612 19615 19616     9 
19609 19612 19615 19617     9 
19609 19612 19615 19618     9 
19613 19612 19615 19616     9 
19613 19612 19615 19617     9 
19613 19612 19615 19618     9 
19614 19612 19615 19616     9 
19614 19612 19615 19617     9 
19614 19612 19615 19618     9 
19612 19615 19618 19619     9 
19612 19615 19618 19620     9 
19612 19615 19618 19621     9 
19616 19615 19618 19619     9 
19616 19615 19618 19620     9 
19616 19615 19618 19621     9 
19617 19615 19618 19619     9 
19617 19615 19618 19620     9 
19617 19615 19618 19621     9 
19615 19618 19621 19622     9 
19615 19618 19621 19623     9 
19615 19618 19621 19624     9 
19619 19618 19621 19622     9 
19619 19618 19621 19623     9 
19619 19618 19621 19624     9 
19620 19618 19621 19622     9 
19620 19618 19621 19623     9 
19620 19618 19621 19624     9 
19618 19621 19624 19625     9 
19618 19621 19624 19626     9 
19618 19621 19624 19627     9 
19622 19621 19624 19625     9 
19622 19621 19624 19626     9 
19622 19621 19624 19627     9 
19623 19621 19624 19625     9 
19623 19621 19624 19626     9 
19623 19621 19624 19627     9 
19621 19624 19627 19628     9 
19621 19624 19627 19629     9 
19625 19624 19627 19628     9 
19625 19624 19627 19629     9 
19626 19624 19627 19628     9 
19626 19624 19627 19629     9 
19624 19627 19629 19630     9 
19624 19627 19629 19631     9 
19628 19627 19629 19630     9 
19628 19627 19629 19631     9 
19627 19629 19631 19632     9 
19627 19629 19631 19633     9 
19627 19629 19631 19634     9 
19630 19629 19631 19632     9 
19630 19629 19631 19633     9 
19630 19629 19631 19634     9 
19629 19631 19634 19635     9 
19629 19631 19634 19636     9 
19629 19631 19634 19637     9 
19632 19631 19634 19635     9 
19632 19631 19634 19636     9 
19632 19631 19634 19637     9 
19633 19631 19634 19635     9 
19633 19631 19634 19636     9 
19633 19631 19634 19637     9 
19631 19634 19637 19638     9 
19631 19634 19637 19639     9 
19631 19634 19637 19640     9 
19635 19634 19637 19638     9 
19635 19634 19637 19639     9 
19635 19634 19637 19640     9 
19636 19634 19637 19638     9 
19636 19634 19637 19639     9 
19636 19634 19637 19640     9 
19634 19637 19640 19641     9 
19634 19637 19640 19642     9 
19634 19637 19640 19643     9 
19638 19637 19640 19641     9 
19638 19637 19640 19642     9 
19638 19637 19640 19643     9 
19639 19637 19640 19641     9 
19639 19637 19640 19642     9 
19639 19637 19640 19643     9 
19637 19640 19643 19644     9 
19637 19640 19643 19645     9 
19637 19640 19643 19646     9 
19641 19640 19643 19644     9 
19641 19640 19643 19645     9 
19641 19640 19643 19646     9 
19642 19640 19643 19644     9 
19642 19640 19643 19645     9 
19642 19640 19643 19646     9 
19640 19643 19646 19647     9 
19640 19643 19646 19648     9 
19640 19643 19646 19649     9 
19644 19643 19646 19647     9 
19644 19643 19646 19648     9 
19644 19643 19646 19649     9 
19645 19643 19646 19647     9 
19645 19643 19646 19648     9 
19645 19643 19646 19649     9 
19643 19646 19649 19650     9 
19643 19646 19649 19651     9 
19643 19646 19649 19652     9 
19647 19646 19649 19650     9 
19647 19646 19649 19651     9 
19647 19646 19649 19652     9 
19648 19646 19649 19650     9 
19648 19646 19649 19651     9 
19648 19646 19649 19652     9 
19646 19649 19652 19653     9 
19646 19649 19652 19654     9 
19646 19649 19652 19655     9 
19650 19649 19652 19653     9 
19650 19649 19652 19654     9 
19650 19649 19652 19655     9 
19651 19649 19652 19653     9 
19651 19649 19652 19654     9 
19651 19649 19652 19655     9 
19606 19656 19659 19660     9 
19606 19656 19659 19661     9 
19606 19656 19659 19662     9 
19657 19656 19659 19660     9 
19657 19656 19659 19661     9 
19657 19656 19659 19662     9 
19658 19656 19659 19660     9 
19658 19656 19659 19661     9 
19658 19656 19659 19662     9 
19656 19659 19662 19663     9 
19656 19659 19662 19664     9 
19656 19659 19662 19665     9 
19660 19659 19662 19663     9 
19660 19659 19662 19664     9 
19660 19659 19662 19665     9 
19661 19659 19662 19663     9 
19661 19659 19662 19664     9 
19661 19659 19662 19665     9 
19659 19662 19665 19666     9 
19659 19662 19665 19667     9 
19659 19662 19665 19668     9 
19663 19662 19665 19666     9 
19663 19662 19665 19667     9 
19663 19662 19665 19668     9 
19664 19662 19665 19666     9 
19664 19662 19665 19667     9 
19664 19662 19665 19668     9 
19662 19665 19668 19669     9 
19662 19665 19668 19670     9 
19662 19665 19668 19671     9 
19666 19665 19668 19669     9 
19666 19665 19668 19670     9 
19666 19665 19668 19671     9 
19667 19665 19668 19669     9 
19667 19665 19668 19670     9 
19667 19665 19668 19671     9 
19665 19668 19671 19672     9 
19665 19668 19671 19673     9 
19665 19668 19671 19674     9 
19669 19668 19671 19672     9 
19669 19668 19671 19673     9 
19669 19668 19671 19674     9 
19670 19668 19671 19672     9 
19670 19668 19671 19673     9 
19670 19668 19671 19674     9 
19668 19671 19674 19675     9 
19668 19671 19674 19676     9 
19668 19671 19674 19677     9 
19672 19671 19674 19675     9 
19672 19671 19674 19676     9 
19672 19671 19674 19677     9 
19673 19671 19674 19675     9 
19673 19671 19674 19676     9 
19673 19671 19674 19677     9 
19671 19674 19677 19678     9 
19671 19674 19677 19679     9 
19671 19674 19677 19680     9 
19675 19674 19677 19678     9 
19675 19674 19677 19679     9 
19675 19674 19677 19680     9 
19676 19674 19677 19678     9 
19676 19674 19677 19679     9 
19676 19674 19677 19680     9 
19674 19677 19680 19681     9 
19674 19677 19680 19682     9 
19674 19677 19680 19683     9 
19678 19677 19680 19681     9 
19678 19677 19680 19682     9 
19678 19677 19680 19683     9 
19679 19677 19680 19681     9 
19679 19677 19680 19682     9 
19679 19677 19680 19683     9 
19677 19680 19683 19684     9 
19677 19680 19683 19685     9 
19677 19680 19683 19686     9 
19681 19680 19683 19684     9 
19681 19680 19683 19685     9 
19681 19680 19683 19686     9 
19682 19680 19683 19684     9 
19682 19680 19683 19685     9 
19682 19680 19683 19686     9 
19680 19683 19686 19687     9 
19680 19683 19686 19688     9 
19680 19683 19686 19689     9 
19684 19683 19686 19687     9 
19684 19683 19686 19688     9 
19684 19683 19686 19689     9 
19685 19683 19686 19687     9 
19685 19683 19686 19688     9 
19685 19683 19686 19689     9 
19683 19686 19689 19690     9 
19683 19686 19689 19691     9 
19683 19686 19689 19692     9 
19687 19686 19689 19690     9 
19687 19686 19689 19691     9 
19687 19686 19689 19692     9 
19688 19686 19689 19690     9 
19688 19686 19689 19691     9 
19688 19686 19689 19692     9 
19686 19689 19692 19693     9 
19686 19689 19692 19694     9 
19686 19689 19692 19695     9 
19690 19689 19692 19693     9 
19690 19689 19692 19694     9 
19690 19689 19692 19695     9 
19691 19689 19692 19693     9 
19691 19689 19692 19694     9 
19691 19689 19692 19695     9 
19689 19692 19695 19696     9 
19689 19692 19695 19697     9 
19689 19692 19695 19698     9 
19693 19692 19695 19696     9 
19693 19692 19695 19697     9 
19693 19692 19695 19698     9 
19694 19692 19695 19696     9 
19694 19692 19695 19697     9 
19694 19692 19695 19698     9 
19703 19699 19700 19701     9 
19703 19699 19700 19702     9 
19703 19699 19700 19715     9 
19707 19699 19700 19701     9 
19707 19699 19700 19702     9 
19707 19699 19700 19715     9 
19711 19699 19700 19701     9 
19711 19699 19700 19702     9 
19711 19699 19700 19715     9 
19700 19699 19703 19704     9 
19700 19699 19703 19705     9 
19700 19699 19703 19706     9 
19707 19699 19703 19704     9 
19707 19699 19703 19705     9 
19707 19699 19703 19706     9 
19711 19699 19703 19704     9 
19711 19699 19703 19705     9 
19711 19699 19703 19706     9 
19700 19699 19707 19708     9 
19700 19699 19707 19709     9 
19700 19699 19707 19710     9 
19703 19699 19707 19708     9 
19703 19699 19707 19709     9 
19703 19699 19707 19710     9 
19711 19699 19707 19708     9 
19711 19699 19707 19709     9 
19711 19699 19707 19710     9 
19700 19699 19711 19712     9 
19700 19699 19711 19713     9 
19700 19699 19711 19714     9 
19703 19699 19711 19712     9 
19703 19699 19711 19713     9 
19703 19699 19711 19714     9 
19707 19699 19711 19712     9 
19707 19699 19711 19713     9 
19707 19699 19711 19714     9 
19699 19700 19715 19716     9 
19699 19700 19715 19717     9 
19699 19700 19715 19721     9 
19701 19700 19715 19716     9 
19701 19700 19715 19717     9 
19701 19700 19715 19721     9 
19702 19700 19715 19716     9 
19702 19700 19715 19717     9 
19702 19700 19715 19721     9 
19700 19715 19721 19718     9 
19716 19715 19721 19718     9 
19717 19715 19721 19718     9 
19719 19718 19721 19715     9 
19720 19718 19721 19715     9 
19722 19718 19721 19715     9 
19719 19718 19722 19723     9 
19720 19718 19722 19723     9 
19721 19718 19722 19723     9 
19718 19722 19723 19724     9 
19718 19722 19723 19725     9 
19718 19722 19723 19726     9 
19722 19723 19726 19727     9 
19722 19723 19726 19728     9 
19722 19723 19726 19734     9 
19724 19723 19726 19727     9 
19724 19723 19726 19728     9 
19724 19723 19726 19734     9 
19725 19723 19726 19727     9 
19725 19723 19726 19728     9 
19725 19723 19726 19734     9 
19723 19726 19728 19729     9 
19727 19726 19728 19729     9 
19734 19726 19728 19729     9 
19723 19726 19734 19735     9 
19723 19726 19734 19736     9 
19723 19726 19734 19737     9 
19727 19726 19734 19735     9 
19727 19726 19734 19736     9 
19727 19726 19734 19737     9 
19728 19726 19734 19735     9 
19728 19726 19734 19736     9 
19728 19726 19734 19737     9 
19726 19728 19729 19730     9 
19726 19728 19729 19731     9 
19728 19729 19731 19732     9 
19728 19729 19731 19733     9 
19728 19729 19731 19743     9 
19730 19729 19731 19732     9 
19730 19729 19731 19733     9 
19730 19729 19731 19743     9 
19729 19731 19743 19744     9 
19729 19731 19743 19745     9 
19729 19731 19743 19746     9 
19732 19731 19743 19744     9 
19732 19731 19743 19745     9 
19732 19731 19743 19746     9 
19733 19731 19743 19744     9 
19733 19731 19743 19745     9 
19733 19731 19743 19746     9 
19726 19734 19737 19738     9 
19735 19734 19737 19738     9 
19736 19734 19737 19738     9 
19734 19737 19738 19739     9 
19734 19737 19738 19740     9 
19737 19738 19740 19741     9 
19737 19738 19740 19742     9 
19737 19738 19740 19790     9 
19739 19738 19740 19741     9 
19739 19738 19740 19742     9 
19739 19738 19740 19790     9 
19738 19740 19790 19791     9 
19738 19740 19790 19792     9 
19738 19740 19790 19793     9 
19741 19740 19790 19791     9 
19741 19740 19790 19792     9 
19741 19740 19790 19793     9 
19742 19740 19790 19791     9 
19742 19740 19790 19792     9 
19742 19740 19790 19793     9 
19731 19743 19746 19747     9 
19731 19743 19746 19748     9 
19731 19743 19746 19749     9 
19744 19743 19746 19747     9 
19744 19743 19746 19748     9 
19744 19743 19746 19749     9 
19745 19743 19746 19747     9 
19745 19743 19746 19748     9 
19745 19743 19746 19749     9 
19743 19746 19749 19750     9 
19743 19746 19749 19751     9 
19743 19746 19749 19752     9 
19747 19746 19749 19750     9 
19747 19746 19749 19751     9 
19747 19746 19749 19752     9 
19748 19746 19749 19750     9 
19748 19746 19749 19751     9 
19748 19746 19749 19752     9 
19746 19749 19752 19753     9 
19746 19749 19752 19754     9 
19746 19749 19752 19755     9 
19750 19749 19752 19753     9 
19750 19749 19752 19754     9 
19750 19749 19752 19755     9 
19751 19749 19752 19753     9 
19751 19749 19752 19754     9 
19751 19749 19752 19755     9 
19749 19752 19755 19756     9 
19749 19752 19755 19757     9 
19749 19752 19755 19758     9 
19753 19752 19755 19756     9 
19753 19752 19755 19757     9 
19753 19752 19755 19758     9 
19754 19752 19755 19756     9 
19754 19752 19755 19757     9 
19754 19752 19755 19758     9 
19752 19755 19758 19759     9 
19752 19755 19758 19760     9 
19752 19755 19758 19761     9 
19756 19755 19758 19759     9 
19756 19755 19758 19760     9 
19756 19755 19758 19761     9 
19757 19755 19758 19759     9 
19757 19755 19758 19760     9 
19757 19755 19758 19761     9 
19755 19758 19761 19762     9 
19755 19758 19761 19763     9 
19759 19758 19761 19762     9 
19759 19758 19761 19763     9 
19760 19758 19761 19762     9 
19760 19758 19761 19763     9 
19758 19761 19763 19764     9 
19758 19761 19763 19765     9 
19762 19761 19763 19764     9 
19762 19761 19763 19765     9 
19761 19763 19765 19766     9 
19761 19763 19765 19767     9 
19761 19763 19765 19768     9 
19764 19763 19765 19766     9 
19764 19763 19765 19767     9 
19764 19763 19765 19768     9 
19763 19765 19768 19769     9 
19763 19765 19768 19770     9 
19763 19765 19768 19771     9 
19766 19765 19768 19769     9 
19766 19765 19768 19770     9 
19766 19765 19768 19771     9 
19767 19765 19768 19769     9 
19767 19765 19768 19770     9 
19767 19765 19768 19771     9 
19765 19768 19771 19772     9 
19765 19768 19771 19773     9 
19765 19768 19771 19774     9 
19769 19768 19771 19772     9 
19769 19768 19771 19773     9 
19769 19768 19771 19774     9 
19770 19768 19771 19772     9 
19770 19768 19771 19773     9 
19770 19768 19771 19774     9 
19768 19771 19774 19775     9 
19768 19771 19774 19776     9 
19768 19771 19774 19777     9 
19772 19771 19774 19775     9 
19772 19771 19774 19776     9 
19772 19771 19774 19777     9 
19773 19771 19774 19775     9 
19773 19771 19774 19776     9 
19773 19771 19774 19777     9 
19771 19774 19777 19778     9 
19771 19774 19777 19779     9 
19771 19774 19777 19780     9 
19775 19774 19777 19778     9 
19775 19774 19777 19779     9 
19775 19774 19777 19780     9 
19776 19774 19777 19778     9 
19776 19774 19777 19779     9 
19776 19774 19777 19780     9 
19774 19777 19780 19781     9 
19774 19777 19780 19782     9 
19774 19777 19780 19783     9 
19778 19777 19780 19781     9 
19778 19777 19780 19782     9 
19778 19777 19780 19783     9 
19779 19777 19780 19781     9 
19779 19777 19780 19782     9 
19779 19777 19780 19783     9 
19777 19780 19783 19784     9 
19777 19780 19783 19785     9 
19777 19780 19783 19786     9 
19781 19780 19783 19784     9 
19781 19780 19783 19785     9 
19781 19780 19783 19786     9 
19782 19780 19783 19784     9 
19782 19780 19783 19785     9 
19782 19780 19783 19786     9 
19780 19783 19786 19787     9 
19780 19783 19786 19788     9 
19780 19783 19786 19789     9 
19784 19783 19786 19787     9 
19784 19783 19786 19788     9 
19784 19783 19786 19789     9 
19785 19783 19786 19787     9 
19785 19783 19786 19788     9 
19785 19783 19786 19789     9 
19740 19790 19793 19794     9 
19740 19790 19793 19795     9 
19740 19790 19793 19796     9 
19791 19790 19793 19794     9 
19791 19790 19793 19795     9 
19791 19790 19793 19796     9 
19792 19790 19793 19794     9 
19792 19790 19793 19795     9 
19792 19790 19793 19796     9 
19790 19793 19796 19797     9 
19790 19793 19796 19798     9 
19790 19793 19796 19799     9 
19794 19793 19796 19797     9 
19794 19793 19796 19798     9 
19794 19793 19796 19799     9 
19795 19793 19796 19797     9 
19795 19793 19796 19798     9 
19795 19793 19796 19799     9 
19793 19796 19799 19800     9 
19793 19796 19799 19801     9 
19793 19796 19799 19802     9 
19797 19796 19799 19800     9 
19797 19796 19799 19801     9 
19797 19796 19799 19802     9 
19798 19796 19799 19800     9 
19798 19796 19799 19801     9 
19798 19796 19799 19802     9 
19796 19799 19802 19803     9 
19796 19799 19802 19804     9 
19796 19799 19802 19805     9 
19800 19799 19802 19803     9 
19800 19799 19802 19804     9 
19800 19799 19802 19805     9 
19801 19799 19802 19803     9 
19801 19799 19802 19804     9 
19801 19799 19802 19805     9 
19799 19802 19805 19806     9 
19799 19802 19805 19807     9 
19799 19802 19805 19808     9 
19803 19802 19805 19806     9 
19803 19802 19805 19807     9 
19803 19802 19805 19808     9 
19804 19802 19805 19806     9 
19804 19802 19805 19807     9 
19804 19802 19805 19808     9 
19802 19805 19808 19809     9 
19802 19805 19808 19810     9 
19802 19805 19808 19811     9 
19806 19805 19808 19809     9 
19806 19805 19808 19810     9 
19806 19805 19808 19811     9 
19807 19805 19808 19809     9 
19807 19805 19808 19810     9 
19807 19805 19808 19811     9 
19805 19808 19811 19812     9 
19805 19808 19811 19813     9 
19805 19808 19811 19814     9 
19809 19808 19811 19812     9 
19809 19808 19811 19813     9 
19809 19808 19811 19814     9 
19810 19808 19811 19812     9 
19810 19808 19811 19813     9 
19810 19808 19811 19814     9 
19808 19811 19814 19815     9 
19808 19811 19814 19816     9 
19808 19811 19814 19817     9 
19812 19811 19814 19815     9 
19812 19811 19814 19816     9 
19812 19811 19814 19817     9 
19813 19811 19814 19815     9 
19813 19811 19814 19816     9 
19813 19811 19814 19817     9 
19811 19814 19817 19818     9 
19811 19814 19817 19819     9 
19811 19814 19817 19820     9 
19815 19814 19817 19818     9 
19815 19814 19817 19819     9 
19815 19814 19817 19820     9 
19816 19814 19817 19818     9 
19816 19814 19817 19819     9 
19816 19814 19817 19820     9 
19814 19817 19820 19821     9 
19814 19817 19820 19822     9 
19814 19817 19820 19823     9 
19818 19817 19820 19821     9 
19818 19817 19820 19822     9 
19818 19817 19820 19823     9 
19819 19817 19820 19821     9 
19819 19817 19820 19822     9 
19819 19817 19820 19823     9 
19817 19820 19823 19824     9 
19817 19820 19823 19825     9 
19817 19820 19823 19826     9 
19821 19820 19823 19824     9 
19821 19820 19823 19825     9 
19821 19820 19823 19826     9 
19822 19820 19823 19824     9 
19822 19820 19823 19825     9 
19822 19820 19823 19826     9 
19820 19823 19826 19827     9 
19820 19823 19826 19828     9 
19820 19823 19826 19829     9 
19824 19823 19826 19827     9 
19824 19823 19826 19828     9 
19824 19823 19826 19829     9 
19825 19823 19826 19827     9 
19825 19823 19826 19828     9 
19825 19823 19826 19829     9 
19823 19826 19829 19830     9 
19823 19826 19829 19831     9 
19823 19826 19829 19832     9 
19827 19826 19829 19830     9 
19827 19826 19829 19831     9 
19827 19826 19829 19832     9 
19828 19826 19829 19830     9 
19828 19826 19829 19831     9 
19828 19826 19829 19832     9 
19837 19833 19834 19835     9 
19837 19833 19834 19836     9 
19837 19833 19834 19849     9 
19841 19833 19834 19835     9 
19841 19833 19834 19836     9 
19841 19833 19834 19849     9 
19845 19833 19834 19835     9 
19845 19833 19834 19836     9 
19845 19833 19834 19849     9 
19834 19833 19837 19838     9 
19834 19833 19837 19839     9 
19834 19833 19837 19840     9 
19841 19833 19837 19838     9 
19841 19833 19837 19839     9 
19841 19833 19837 19840     9 
19845 19833 19837 19838     9 
19845 19833 19837 19839     9 
19845 19833 19837 19840     9 
19834 19833 19841 19842     9 
19834 19833 19841 19843     9 
19834 19833 19841 19844     9 
19837 19833 19841 19842     9 
19837 19833 19841 19843     9 
19837 19833 19841 19844     9 
19845 19833 19841 19842     9 
19845 19833 19841 19843     9 
19845 19833 19841 19844     9 
19834 19833 19845 19846     9 
19834 19833 19845 19847     9 
19834 19833 19845 19848     9 
19837 19833 19845 19846     9 
19837 19833 19845 19847     9 
19837 19833 19845 19848     9 
19841 19833 19845 19846     9 
19841 19833 19845 19847     9 
19841 19833 19845 19848     9 
19833 19834 19849 19850     9 
19833 19834 19849 19851     9 
19833 19834 19849 19855     9 
19835 19834 19849 19850     9 
19835 19834 19849 19851     9 
19835 19834 19849 19855     9 
19836 19834 19849 19850     9 
19836 19834 19849 19851     9 
19836 19834 19849 19855     9 
19834 19849 19855 19852     9 
19850 19849 19855 19852     9 
19851 19849 19855 19852     9 
19853 19852 19855 19849     9 
19854 19852 19855 19849     9 
19856 19852 19855 19849     9 
19853 19852 19856 19857     9 
19854 19852 19856 19857     9 
19855 19852 19856 19857     9 
19852 19856 19857 19858     9 
19852 19856 19857 19859     9 
19852 19856 19857 19860     9 
19856 19857 19860 19861     9 
19856 19857 19860 19862     9 
19856 19857 19860 19868     9 
19858 19857 19860 19861     9 
19858 19857 19860 19862     9 
19858 19857 19860 19868     9 
19859 19857 19860 19861     9 
19859 19857 19860 19862     9 
19859 19857 19860 19868     9 
19857 19860 19862 19863     9 
19861 19860 19862 19863     9 
19868 19860 19862 19863     9 
19857 19860 19868 19869     9 
19857 19860 19868 19870     9 
19857 19860 19868 19871     9 
19861 19860 19868 19869     9 
19861 19860 19868 19870     9 
19861 19860 19868 19871     9 
19862 19860 19868 19869     9 
19862 19860 19868 19870     9 
19862 19860 19868 19871     9 
19860 19862 19863 19864     9 
19860 19862 19863 19865     9 
19862 19863 19865 19866     9 
19862 19863 19865 19867     9 
19862 19863 19865 19877     9 
19864 19863 19865 19866     9 
19864 19863 19865 19867     9 
19864 19863 19865 19877     9 
19863 19865 19877 19878     9 
19863 19865 19877 19879     9 
19863 19865 19877 19880     9 
19866 19865 19877 19878     9 
19866 19865 19877 19879     9 
19866 19865 19877 19880     9 
19867 19865 19877 19878     9 
19867 19865 19877 19879     9 
19867 19865 19877 19880     9 
19860 19868 19871 19872     9 
19869 19868 19871 19872     9 
19870 19868 19871 19872     9 
19868 19871 19872 19873     9 
19868 19871 19872 19874     9 
19871 19872 19874 19875     9 
19871 19872 19874 19876     9 
19871 19872 19874 19924     9 
19873 19872 19874 19875     9 
19873 19872 19874 19876     9 
19873 19872 19874 19924     9 
19872 19874 19924 19925     9 
19872 19874 19924 19926     9 
19872 19874 19924 19927     9 
19875 19874 19924 19925     9 
19875 19874 19924 19926     9 
19875 19874 19924 19927     9 
19876 19874 19924 19925     9 
19876 19874 19924 19926     9 
19876 19874 19924 19927     9 
19865 19877 19880 19881     9 
19865 19877 19880 19882     9 
19865 19877 19880 19883     9 
19878 19877 19880 19881     9 
19878 19877 19880 19882     9 
19878 19877 19880 19883     9 
19879 19877 19880 19881     9 
19879 19877 19880 19882     9 
19879 19877 19880 19883     9 
19877 19880 19883 19884     9 
19877 19880 19883 19885     9 
19877 19880 19883 19886     9 
19881 19880 19883 19884     9 
19881 19880 19883 19885     9 
19881 19880 19883 19886     9 
19882 19880 19883 19884     9 
19882 19880 19883 19885     9 
19882 19880 19883 19886     9 
19880 19883 19886 19887     9 
19880 19883 19886 19888     9 
19880 19883 19886 19889     9 
19884 19883 19886 19887     9 
19884 19883 19886 19888     9 
19884 19883 19886 19889     9 
19885 19883 19886 19887     9 
19885 19883 19886 19888     9 
19885 19883 19886 19889     9 
19883 19886 19889 19890     9 
19883 19886 19889 19891     9 
19883 19886 19889 19892     9 
19887 19886 19889 19890     9 
19887 19886 19889 19891     9 
19887 19886 19889 19892     9 
19888 19886 19889 19890     9 
19888 19886 19889 19891     9 
19888 19886 19889 19892     9 
19886 19889 19892 19893     9 
19886 19889 19892 19894     9 
19886 19889 19892 19895     9 
19890 19889 19892 19893     9 
19890 19889 19892 19894     9 
19890 19889 19892 19895     9 
19891 19889 19892 19893     9 
19891 19889 19892 19894     9 
19891 19889 19892 19895     9 
19889 19892 19895 19896     9 
19889 19892 19895 19897     9 
19893 19892 19895 19896     9 
19893 19892 19895 19897     9 
19894 19892 19895 19896     9 
19894 19892 19895 19897     9 
19892 19895 19897 19898     9 
19892 19895 19897 19899     9 
19896 19895 19897 19898     9 
19896 19895 19897 19899     9 
19895 19897 19899 19900     9 
19895 19897 19899 19901     9 
19895 19897 19899 19902     9 
19898 19897 19899 19900     9 
19898 19897 19899 19901     9 
19898 19897 19899 19902     9 
19897 19899 19902 19903     9 
19897 19899 19902 19904     9 
19897 19899 19902 19905     9 
19900 19899 19902 19903     9 
19900 19899 19902 19904     9 
19900 19899 19902 19905     9 
19901 19899 19902 19903     9 
19901 19899 19902 19904     9 
19901 19899 19902 19905     9 
19899 19902 19905 19906     9 
19899 19902 19905 19907     9 
19899 19902 19905 19908     9 
19903 19902 19905 19906     9 
19903 19902 19905 19907     9 
19903 19902 19905 19908     9 
19904 19902 19905 19906     9 
19904 19902 19905 19907     9 
19904 19902 19905 19908     9 
19902 19905 19908 19909     9 
19902 19905 19908 19910     9 
19902 19905 19908 19911     9 
19906 19905 19908 19909     9 
19906 19905 19908 19910     9 
19906 19905 19908 19911     9 
19907 19905 19908 19909     9 
19907 19905 19908 19910     9 
19907 19905 19908 19911     9 
19905 19908 19911 19912     9 
19905 19908 19911 19913     9 
19905 19908 19911 19914     9 
19909 19908 19911 19912     9 
19909 19908 19911 19913     9 
19909 19908 19911 19914     9 
19910 19908 19911 19912     9 
19910 19908 19911 19913     9 
19910 19908 19911 19914     9 
19908 19911 19914 19915     9 
19908 19911 19914 19916     9 
19908 19911 19914 19917     9 
19912 19911 19914 19915     9 
19912 19911 19914 19916     9 
19912 19911 19914 19917     9 
19913 19911 19914 19915     9 
19913 19911 19914 19916     9 
19913 19911 19914 19917     9 
19911 19914 19917 19918     9 
19911 19914 19917 19919     9 
19911 19914 19917 19920     9 
19915 19914 19917 19918     9 
19915 19914 19917 19919     9 
19915 19914 19917 19920     9 
19916 19914 19917 19918     9 
19916 19914 19917 19919     9 
19916 19914 19917 19920     9 
19914 19917 19920 19921     9 
19914 19917 19920 19922     9 
19914 19917 19920 19923     9 
19918 19917 19920 19921     9 
19918 19917 19920 19922     9 
19918 19917 19920 19923     9 
19919 19917 19920 19921     9 
19919 19917 19920 19922     9 
19919 19917 19920 19923     9 
19874 19924 19927 19928     9 
19874 19924 19927 19929     9 
19874 19924 19927 19930     9 
19925 19924 19927 19928     9 
19925 19924 19927 19929     9 
19925 19924 19927 19930     9 
19926 19924 19927 19928     9 
19926 19924 19927 19929     9 
19926 19924 19927 19930     9 
19924 19927 19930 19931     9 
19924 19927 19930 19932     9 
19924 19927 19930 19933     9 
19928 19927 19930 19931     9 
19928 19927 19930 19932     9 
19928 19927 19930 19933     9 
19929 19927 19930 19931     9 
19929 19927 19930 19932     9 
19929 19927 19930 19933     9 
19927 19930 19933 19934     9 
19927 19930 19933 19935     9 
19927 19930 19933 19936     9 
19931 19930 19933 19934     9 
19931 19930 19933 19935     9 
19931 19930 19933 19936     9 
19932 19930 19933 19934     9 
19932 19930 19933 19935     9 
19932 19930 19933 19936     9 
19930 19933 19936 19937     9 
19930 19933 19936 19938     9 
19930 19933 19936 19939     9 
19934 19933 19936 19937     9 
19934 19933 19936 19938     9 
19934 19933 19936 19939     9 
19935 19933 19936 19937     9 
19935 19933 19936 19938     9 
19935 19933 19936 19939     9 
19933 19936 19939 19940     9 
19933 19936 19939 19941     9 
19933 19936 19939 19942     9 
19937 19936 19939 19940     9 
19937 19936 19939 19941     9 
19937 19936 19939 19942     9 
19938 19936 19939 19940     9 
19938 19936 19939 19941     9 
19938 19936 19939 19942     9 
19936 19939 19942 19943     9 
19936 19939 19942 19944     9 
19936 19939 19942 19945     9 
19940 19939 19942 19943     9 
19940 19939 19942 19944     9 
19940 19939 19942 19945     9 
19941 19939 19942 19943     9 
19941 19939 19942 19944     9 
19941 19939 19942 19945     9 
19939 19942 19945 19946     9 
19939 19942 19945 19947     9 
19939 19942 19945 19948     9 
19943 19942 19945 19946     9 
19943 19942 19945 19947     9 
19943 19942 19945 19948     9 
19944 19942 19945 19946     9 
19944 19942 19945 19947     9 
19944 19942 19945 19948     9 
19942 19945 19948 19949     9 
19942 19945 19948 19950     9 
19942 19945 19948 19951     9 
19946 19945 19948 19949     9 
19946 19945 19948 19950     9 
19946 19945 19948 19951     9 
19947 19945 19948 19949     9 
19947 19945 19948 19950     9 
19947 19945 19948 19951     9 
19945 19948 19951 19952     9 
19945 19948 19951 19953     9 
19945 19948 19951 19954     9 
19949 19948 19951 19952     9 
19949 19948 19951 19953     9 
19949 19948 19951 19954     9 
19950 19948 19951 19952     9 
19950 19948 19951 19953     9 
19950 19948 19951 19954     9 
19948 19951 19954 19955     9 
19948 19951 19954 19956     9 
19948 19951 19954 19957     9 
19952 19951 19954 19955     9 
19952 19951 19954 19956     9 
19952 19951 19954 19957     9 
19953 19951 19954 19955     9 
19953 19951 19954 19956     9 
19953 19951 19954 19957     9 
19951 19954 19957 19958     9 
19951 19954 19957 19959     9 
19951 19954 19957 19960     9 
19955 19954 19957 19958     9 
19955 19954 19957 19959     9 
19955 19954 19957 19960     9 
19956 19954 19957 19958     9 
19956 19954 19957 19959     9 
19956 19954 19957 19960     9 
19954 19957 19960 19961     9 
19954 19957 19960 19962     9 
19954 19957 19960 19963     9 
19958 19957 19960 19961     9 
19958 19957 19960 19962     9 
19958 19957 19960 19963     9 
19959 19957 19960 19961     9 
19959 19957 19960 19962     9 
19959 19957 19960 19963     9 
19957 19960 19963 19964     9 
19957 19960 19963 19965     9 
19957 19960 19963 19966     9 
19961 19960 19963 19964     9 
19961 19960 19963 19965     9 
19961 19960 19963 19966     9 
19962 19960 19963 19964     9 
19962 19960 19963 19965     9 
19962 19960 19963 19966     9 
19971 19967 19968 19969     9 
19971 19967 19968 19970     9 
19971 19967 19968 19983     9 
19975 19967 19968 19969     9 
19975 19967 19968 19970     9 
19975 19967 19968 19983     9 
19979 19967 19968 19969     9 
19979 19967 19968 19970     9 
19979 19967 19968 19983     9 
19968 19967 19971 19972     9 
19968 19967 19971 19973     9 
19968 19967 19971 19974     9 
19975 19967 19971 19972     9 
19975 19967 19971 19973     9 
19975 19967 19971 19974     9 
19979 19967 19971 19972     9 
19979 19967 19971 19973     9 
19979 19967 19971 19974     9 
19968 19967 19975 19976     9 
19968 19967 19975 19977     9 
19968 19967 19975 19978     9 
19971 19967 19975 19976     9 
19971 19967 19975 19977     9 
19971 19967 19975 19978     9 
19979 19967 19975 19976     9 
19979 19967 19975 19977     9 
19979 19967 19975 19978     9 
19968 19967 19979 19980     9 
19968 19967 19979 19981     9 
19968 19967 19979 19982     9 
19971 19967 19979 19980     9 
19971 19967 19979 19981     9 
19971 19967 19979 19982     9 
19975 19967 19979 19980     9 
19975 19967 19979 19981     9 
19975 19967 19979 19982     9 
19967 19968 19983 19984     9 
19967 19968 19983 19985     9 
19967 19968 19983 19989     9 
19969 19968 19983 19984     9 
19969 19968 19983 19985     9 
19969 19968 19983 19989     9 
19970 19968 19983 19984     9 
19970 19968 19983 19985     9 
19970 19968 19983 19989     9 
19968 19983 19989 19986     9 
19984 19983 19989 19986     9 
19985 19983 19989 19986     9 
19987 19986 19989 19983     9 
19988 19986 19989 19983     9 
19990 19986 19989 19983     9 
19987 19986 19990 19991     9 
19988 19986 19990 19991     9 
19989 19986 19990 19991     9 
19986 19990 19991 19992     9 
19986 19990 19991 19993     9 
19986 19990 19991 19994     9 
19990 19991 19994 19995     9 
19990 19991 19994 19996     9 
19990 19991 19994 20002     9 
19992 19991 19994 19995     9 
19992 19991 19994 19996     9 
19992 19991 19994 20002     9 
19993 19991 19994 19995     9 
19993 19991 19994 19996     9 
19993 19991 19994 20002     9 
19991 19994 19996 19997     9 
19995 19994 19996 19997     9 
20002 19994 19996 19997     9 
19991 19994 20002 20003     9 
19991 19994 20002 20004     9 
19991 19994 20002 20005     9 
19995 19994 20002 20003     9 
19995 19994 20002 20004     9 
19995 19994 20002 20005     9 
19996 19994 20002 20003     9 
19996 19994 20002 20004     9 
19996 19994 20002 20005     9 
19994 19996 19997 19998     9 
19994 19996 19997 19999     9 
19996 19997 19999 20000     9 
19996 19997 19999 20001     9 
19996 19997 19999 20011     9 
19998 19997 19999 20000     9 
19998 19997 19999 20001     9 
19998 19997 19999 20011     9 
19997 19999 20011 20012     9 
19997 19999 20011 20013     9 
19997 19999 20011 20014     9 
20000 19999 20011 20012     9 
20000 19999 20011 20013     9 
20000 19999 20011 20014     9 
20001 19999 20011 20012     9 
20001 19999 20011 20013     9 
20001 19999 20011 20014     9 
19994 20002 20005 20006     9 
20003 20002 20005 20006     9 
20004 20002 20005 20006     9 
20002 20005 20006 20007     9 
20002 20005 20006 20008     9 
20005 20006 20008 20009     9 
20005 20006 20008 20010     9 
20005 20006 20008 20058     9 
20007 20006 20008 20009     9 
20007 20006 20008 20010     9 
20007 20006 20008 20058     9 
20006 20008 20058 20059     9 
20006 20008 20058 20060     9 
20006 20008 20058 20061     9 
20009 20008 20058 20059     9 
20009 20008 20058 20060     9 
20009 20008 20058 20061     9 
20010 20008 20058 20059     9 
20010 20008 20058 20060     9 
20010 20008 20058 20061     9 
19999 20011 20014 20015     9 
19999 20011 20014 20016     9 
19999 20011 20014 20017     9 
20012 20011 20014 20015     9 
20012 20011 20014 20016     9 
20012 20011 20014 20017     9 
20013 20011 20014 20015     9 
20013 20011 20014 20016     9 
20013 20011 20014 20017     9 
20011 20014 20017 20018     9 
20011 20014 20017 20019     9 
20011 20014 20017 20020     9 
20015 20014 20017 20018     9 
20015 20014 20017 20019     9 
20015 20014 20017 20020     9 
20016 20014 20017 20018     9 
20016 20014 20017 20019     9 
20016 20014 20017 20020     9 
20014 20017 20020 20021     9 
20014 20017 20020 20022     9 
20014 20017 20020 20023     9 
20018 20017 20020 20021     9 
20018 20017 20020 20022     9 
20018 20017 20020 20023     9 
20019 20017 20020 20021     9 
20019 20017 20020 20022     9 
20019 20017 20020 20023     9 
20017 20020 20023 20024     9 
20017 20020 20023 20025     9 
20017 20020 20023 20026     9 
20021 20020 20023 20024     9 
20021 20020 20023 20025     9 
20021 20020 20023 20026     9 
20022 20020 20023 20024     9 
20022 20020 20023 20025     9 
20022 20020 20023 20026     9 
20020 20023 20026 20027     9 
20020 20023 20026 20028     9 
20020 20023 20026 20029     9 
20024 20023 20026 20027     9 
20024 20023 20026 20028     9 
20024 20023 20026 20029     9 
20025 20023 20026 20027     9 
20025 20023 20026 20028     9 
20025 20023 20026 20029     9 
20023 20026 20029 20030     9 
20023 20026 20029 20031     9 
20027 20026 20029 20030     9 
20027 20026 20029 20031     9 
20028 20026 20029 20030     9 
20028 20026 20029 20031     9 
20026 20029 20031 20032     9 
20026 20029 20031 20033     9 
20030 20029 20031 20032     9 
20030 20029 20031 20033     9 
20029 20031 20033 20034     9 
20029 20031 20033 20035     9 
20029 20031 20033 20036     9 
20032 20031 20033 20034     9 
20032 20031 20033 20035     9 
20032 20031 20033 20036     9 
20031 20033 20036 20037     9 
20031 20033 20036 20038     9 
20031 20033 20036 20039     9 
20034 20033 20036 20037     9 
20034 20033 20036 20038     9 
20034 20033 20036 20039     9 
20035 20033 20036 20037     9 
20035 20033 20036 20038     9 
20035 20033 20036 20039     9 
20033 20036 20039 20040     9 
20033 20036 20039 20041     9 
20033 20036 20039 20042     9 
20037 20036 20039 20040     9 
20037 20036 20039 20041     9 
20037 20036 20039 20042     9 
20038 20036 20039 20040     9 
20038 20036 20039 20041     9 
20038 20036 20039 20042     9 
20036 20039 20042 20043     9 
20036 20039 20042 20044     9 
20036 20039 20042 20045     9 
20040 20039 20042 20043     9 
20040 20039 20042 20044     9 
20040 20039 20042 20045     9 
20041 20039 20042 20043     9 
20041 20039 20042 20044     9 
20041 20039 20042 20045     9 
20039 20042 20045 20046     9 
20039 20042 20045 20047     9 
20039 20042 20045 20048     9 
20043 20042 20045 20046     9 
20043 20042 20045 20047     9 
20043 20042 20045 20048     9 
20044 20042 20045 20046     9 
20044 20042 20045 20047     9 
20044 20042 20045 20048     9 
20042 20045 20048 20049     9 
20042 20045 20048 20050     9 
20042 20045 20048 20051     9 
20046 20045 20048 20049     9 
20046 20045 20048 20050     9 
20046 20045 20048 20051     9 
20047 20045 20048 20049     9 
20047 20045 20048 20050     9 
20047 20045 20048 20051     9 
20045 20048 20051 20052     9 
20045 20048 20051 20053     9 
20045 20048 20051 20054     9 
20049 20048 20051 20052     9 
20049 20048 20051 20053     9 
20049 20048 20051 20054     9 
20050 20048 20051 20052     9 
20050 20048 20051 20053     9 
20050 20048 20051 20054     9 
20048 20051 20054 20055     9 
20048 20051 20054 20056     9 
20048 20051 20054 20057     9 
20052 20051 20054 20055     9 
20052 20051 20054 20056     9 
20052 20051 20054 20057     9 
20053 20051 20054 20055     9 
20053 20051 20054 20056     9 
20053 20051 20054 20057     9 
20008 20058 20061 20062     9 
20008 20058 20061 20063     9 
20008 20058 20061 20064     9 
20059 20058 20061 20062     9 
20059 20058 20061 20063     9 
20059 20058 20061 20064     9 
20060 20058 20061 20062     9 
20060 20058 20061 20063     9 
20060 20058 20061 20064     9 
20058 20061 20064 20065     9 
20058 20061 20064 20066     9 
20058 20061 20064 20067     9 
20062 20061 20064 20065     9 
20062 20061 20064 20066     9 
20062 20061 20064 20067     9 
20063 20061 20064 20065     9 
20063 20061 20064 20066     9 
20063 20061 20064 20067     9 
20061 20064 20067 20068     9 
20061 20064 20067 20069     9 
20061 20064 20067 20070     9 
20065 20064 20067 20068     9 
20065 20064 20067 20069     9 
20065 20064 20067 20070     9 
20066 20064 20067 20068     9 
20066 20064 20067 20069     9 
20066 20064 20067 20070     9 
20064 20067 20070 20071     9 
20064 20067 20070 20072     9 
20064 20067 20070 20073     9 
20068 20067 20070 20071     9 
20068 20067 20070 20072     9 
20068 20067 20070 20073     9 
20069 20067 20070 20071     9 
20069 20067 20070 20072     9 
20069 20067 20070 20073     9 
20067 20070 20073 20074     9 
20067 20070 20073 20075     9 
20067 20070 20073 20076     9 
20071 20070 20073 20074     9 
20071 20070 20073 20075     9 
20071 20070 20073 20076     9 
20072 20070 20073 20074     9 
20072 20070 20073 20075     9 
20072 20070 20073 20076     9 
20070 20073 20076 20077     9 
20070 20073 20076 20078     9 
20070 20073 20076 20079     9 
20074 20073 20076 20077     9 
20074 20073 20076 20078     9 
20074 20073 20076 20079     9 
20075 20073 20076 20077     9 
20075 20073 20076 20078     9 
20075 20073 20076 20079     9 
20073 20076 20079 20080     9 
20073 20076 20079 20081     9 
20073 20076 20079 20082     9 
20077 20076 20079 20080     9 
20077 20076 20079 20081     9 
20077 20076 20079 20082     9 
20078 20076 20079 20080     9 
20078 20076 20079 20081     9 
20078 20076 20079 20082     9 
20076 20079 20082 20083     9 
20076 20079 20082 20084     9 
20076 20079 20082 20085     9 
20080 20079 20082 20083     9 
20080 20079 20082 20084     9 
20080 20079 20082 20085     9 
20081 20079 20082 20083     9 
20081 20079 20082 20084     9 
20081 20079 20082 20085     9 
20079 20082 20085 20086     9 
20079 20082 20085 20087     9 
20079 20082 20085 20088     9 
20083 20082 20085 20086     9 
20083 20082 20085 20087     9 
20083 20082 20085 20088     9 
20084 20082 20085 20086     9 
20084 20082 20085 20087     9 
20084 20082 20085 20088     9 
20082 20085 20088 20089     9 
20082 20085 20088 20090     9 
20082 20085 20088 20091     9 
20086 20085 20088 20089     9 
20086 20085 20088 20090     9 
20086 20085 20088 20091     9 
20087 20085 20088 20089     9 
20087 20085 20088 20090     9 
20087 20085 20088 20091     9 
20085 20088 20091 20092     9 
20085 20088 20091 20093     9 
20085 20088 20091 20094     9 
20089 20088 20091 20092     9 
20089 20088 20091 20093     9 
20089 20088 20091 20094     9 
20090 20088 20091 20092     9 
20090 20088 20091 20093     9 
20090 20088 20091 20094     9 
20088 20091 20094 20095     9 
20088 20091 20094 20096     9 
20088 20091 20094 20097     9 
20092 20091 20094 20095     9 
20092 20091 20094 20096     9 
20092 20091 20094 20097     9 
20093 20091 20094 20095     9 
20093 20091 20094 20096     9 
20093 20091 20094 20097     9 
20091 20094 20097 20098     9 
20091 20094 20097 20099     9 
20091 20094 20097 20100     9 
20095 20094 20097 20098     9 
20095 20094 20097 20099     9 
20095 20094 20097 20100     9 
20096 20094 20097 20098     9 
20096 20094 20097 20099     9 
20096 20094 20097 20100     9 
20105 20101 20102 20103     9 
20105 20101 20102 20104     9 
20105 20101 20102 20117     9 
20109 20101 20102 20103     9 
20109 20101 20102 20104     9 
20109 20101 20102 20117     9 
20113 20101 20102 20103     9 
20113 20101 20102 20104     9 
20113 20101 20102 20117     9 
20102 20101 20105 20106     9 
20102 20101 20105 20107     9 
20102 20101 20105 20108     9 
20109 20101 20105 20106     9 
20109 20101 20105 20107     9 
20109 20101 20105 20108     9 
20113 20101 20105 20106     9 
20113 20101 20105 20107     9 
20113 20101 20105 20108     9 
20102 20101 20109 20110     9 
20102 20101 20109 20111     9 
20102 20101 20109 20112     9 
20105 20101 20109 20110     9 
20105 20101 20109 20111     9 
20105 20101 20109 20112     9 
20113 20101 20109 20110     9 
20113 20101 20109 20111     9 
20113 20101 20109 20112     9 
20102 20101 20113 20114     9 
20102 20101 20113 20115     9 
20102 20101 20113 20116     9 
20105 20101 20113 20114     9 
20105 20101 20113 20115     9 
20105 20101 20113 20116     9 
20109 20101 20113 20114     9 
20109 20101 20113 20115     9 
20109 20101 20113 20116     9 
20101 20102 20117 20118     9 
20101 20102 20117 20119     9 
20101 20102 20117 20123     9 
20103 20102 20117 20118     9 
20103 20102 20117 20119     9 
20103 20102 20117 20123     9 
20104 20102 20117 20118     9 
20104 20102 20117 20119     9 
20104 20102 20117 20123     9 
20102 20117 20123 20120     9 
20118 20117 20123 20120     9 
20119 20117 20123 20120     9 
20121 20120 20123 20117     9 
20122 20120 20123 20117     9 
20124 20120 20123 20117     9 
20121 20120 20124 20125     9 
20122 20120 20124 20125     9 
20123 20120 20124 20125     9 
20120 20124 20125 20126     9 
20120 20124 20125 20127     9 
20120 20124 20125 20128     9 
20124 20125 20128 20129     9 
20124 20125 20128 20130     9 
20124 20125 20128 20136     9 
20126 20125 20128 20129     9 
20126 20125 20128 20130     9 
20126 20125 20128 20136     9 
20127 20125 20128 20129     9 
20127 20125 20128 20130     9 
20127 20125 20128 20136     9 
20125 20128 20130 20131     9 
20129 20128 20130 20131     9 
20136 20128 20130 20131     9 
20125 20128 20136 20137     9 
20125 20128 20136 20138     9 
20125 20128 20136 20139     9 
20129 20128 20136 20137     9 
20129 20128 20136 20138     9 
20129 20128 20136 20139     9 
20130 20128 20136 20137     9 
20130 20128 20136 20138     9 
20130 20128 20136 20139     9 
20128 20130 20131 20132     9 
20128 20130 20131 20133     9 
20130 20131 20133 20134     9 
20130 20131 20133 20135     9 
20130 20131 20133 20145     9 
20132 20131 20133 20134     9 
20132 20131 20133 20135     9 
20132 20131 20133 20145     9 
20131 20133 20145 20146     9 
20131 20133 20145 20147     9 
20131 20133 20145 20148     9 
20134 20133 20145 20146     9 
20134 20133 20145 20147     9 
20134 20133 20145 20148     9 
20135 20133 20145 20146     9 
20135 20133 20145 20147     9 
20135 20133 20145 20148     9 
20128 20136 20139 20140     9 
20137 20136 20139 20140     9 
20138 20136 20139 20140     9 
20136 20139 20140 20141     9 
20136 20139 20140 20142     9 
20139 20140 20142 20143     9 
20139 20140 20142 20144     9 
20139 20140 20142 20192     9 
20141 20140 20142 20143     9 
20141 20140 20142 20144     9 
20141 20140 20142 20192     9 
20140 20142 20192 20193     9 
20140 20142 20192 20194     9 
20140 20142 20192 20195     9 
20143 20142 20192 20193     9 
20143 20142 20192 20194     9 
20143 20142 20192 20195     9 
20144 20142 20192 20193     9 
20144 20142 20192 20194     9 
20144 20142 20192 20195     9 
20133 20145 20148 20149     9 
20133 20145 20148 20150     9 
20133 20145 20148 20151     9 
20146 20145 20148 20149     9 
20146 20145 20148 20150     9 
20146 20145 20148 20151     9 
20147 20145 20148 20149     9 
20147 20145 20148 20150     9 
20147 20145 20148 20151     9 
20145 20148 20151 20152     9 
20145 20148 20151 20153     9 
20145 20148 20151 20154     9 
20149 20148 20151 20152     9 
20149 20148 20151 20153     9 
20149 20148 20151 20154     9 
20150 20148 20151 20152     9 
20150 20148 20151 20153     9 
20150 20148 20151 20154     9 
20148 20151 20154 20155     9 
20148 20151 20154 20156     9 
20148 20151 20154 20157     9 
20152 20151 20154 20155     9 
20152 20151 20154 20156     9 
20152 20151 20154 20157     9 
20153 20151 20154 20155     9 
20153 20151 20154 20156     9 
20153 20151 20154 20157     9 
20151 20154 20157 20158     9 
20151 20154 20157 20159     9 
20151 20154 20157 20160     9 
20155 20154 20157 20158     9 
20155 20154 20157 20159     9 
20155 20154 20157 20160     9 
20156 20154 20157 20158     9 
20156 20154 20157 20159     9 
20156 20154 20157 20160     9 
20154 20157 20160 20161     9 
20154 20157 20160 20162     9 
20154 20157 20160 20163     9 
20158 20157 20160 20161     9 
20158 20157 20160 20162     9 
20158 20157 20160 20163     9 
20159 20157 20160 20161     9 
20159 20157 20160 20162     9 
20159 20157 20160 20163     9 
20157 20160 20163 20164     9 
20157 20160 20163 20165     9 
20161 20160 20163 20164     9 
20161 20160 20163 20165     9 
20162 20160 20163 20164     9 
20162 20160 20163 20165     9 
20160 20163 20165 20166     9 
20160 20163 20165 20167     9 
20164 20163 20165 20166     9 
20164 20163 20165 20167     9 
20163 20165 20167 20168     9 
20163 20165 20167 20169     9 
20163 20165 20167 20170     9 
20166 20165 20167 20168     9 
20166 20165 20167 20169     9 
20166 20165 20167 20170     9 
20165 20167 20170 20171     9 
20165 20167 20170 20172     9 
20165 20167 20170 20173     9 
20168 20167 20170 20171     9 
20168 20167 20170 20172     9 
20168 20167 20170 20173     9 
20169 20167 20170 20171     9 
20169 20167 20170 20172     9 
20169 20167 20170 20173     9 
20167 20170 20173 20174     9 
20167 20170 20173 20175     9 
20167 20170 20173 20176     9 
20171 20170 20173 20174     9 
20171 20170 20173 20175     9 
20171 20170 20173 20176     9 
20172 20170 20173 20174     9 
20172 20170 20173 20175     9 
20172 20170 20173 20176     9 
20170 20173 20176 20177     9 
20170 20173 20176 20178     9 
20170 20173 20176 20179     9 
20174 20173 20176 20177     9 
20174 20173 20176 20178     9 
20174 20173 20176 20179     9 
20175 20173 20176 20177     9 
20175 20173 20176 20178     9 
20175 20173 20176 20179     9 
20173 20176 20179 20180     9 
20173 20176 20179 20181     9 
20173 20176 20179 20182     9 
20177 20176 20179 20180     9 
20177 20176 20179 20181     9 
20177 20176 20179 20182     9 
20178 20176 20179 20180     9 
20178 20176 20179 20181     9 
20178 20176 20179 20182     9 
20176 20179 20182 20183     9 
20176 20179 20182 20184     9 
20176 20179 20182 20185     9 
20180 20179 20182 20183     9 
20180 20179 20182 20184     9 
20180 20179 20182 20185     9 
20181 20179 20182 20183     9 
20181 20179 20182 20184     9 
20181 20179 20182 20185     9 
20179 20182 20185 20186     9 
20179 20182 20185 20187     9 
20179 20182 20185 20188     9 
20183 20182 20185 20186     9 
20183 20182 20185 20187     9 
20183 20182 20185 20188     9 
20184 20182 20185 20186     9 
20184 20182 20185 20187     9 
20184 20182 20185 20188     9 
20182 20185 20188 20189     9 
20182 20185 20188 20190     9 
20182 20185 20188 20191     9 
20186 20185 20188 20189     9 
20186 20185 20188 20190     9 
20186 20185 20188 20191     9 
20187 20185 20188 20189     9 
20187 20185 20188 20190     9 
20187 20185 20188 20191     9 
20142 20192 20195 20196     9 
20142 20192 20195 20197     9 
20142 20192 20195 20198     9 
20193 20192 20195 20196     9 
20193 20192 20195 20197     9 
20193 20192 20195 20198     9 
20194 20192 20195 20196     9 
20194 20192 20195 20197     9 
20194 20192 20195 20198     9 
20192 20195 20198 20199     9 
20192 20195 20198 20200     9 
20192 20195 20198 20201     9 
20196 20195 20198 20199     9 
20196 20195 20198 20200     9 
20196 20195 20198 20201     9 
20197 20195 20198 20199     9 
20197 20195 20198 20200     9 
20197 20195 20198 20201     9 
20195 20198 20201 20202     9 
20195 20198 20201 20203     9 
20195 20198 20201 20204     9 
20199 20198 20201 20202     9 
20199 20198 20201 20203     9 
20199 20198 20201 20204     9 
20200 20198 20201 20202     9 
20200 20198 20201 20203     9 
20200 20198 20201 20204     9 
20198 20201 20204 20205     9 
20198 20201 20204 20206     9 
20198 20201 20204 20207     9 
20202 20201 20204 20205     9 
20202 20201 20204 20206     9 
20202 20201 20204 20207     9 
20203 20201 20204 20205     9 
20203 20201 20204 20206     9 
20203 20201 20204 20207     9 
20201 20204 20207 20208     9 
20201 20204 20207 20209     9 
20201 20204 20207 20210     9 
20205 20204 20207 20208     9 
20205 20204 20207 20209     9 
20205 20204 20207 20210     9 
20206 20204 20207 20208     9 
20206 20204 20207 20209     9 
20206 20204 20207 20210     9 
20204 20207 20210 20211     9 
20204 20207 20210 20212     9 
20204 20207 20210 20213     9 
20208 20207 20210 20211     9 
20208 20207 20210 20212     9 
20208 20207 20210 20213     9 
20209 20207 20210 20211     9 
20209 20207 20210 20212     9 
20209 20207 20210 20213     9 
20207 20210 20213 20214     9 
20207 20210 20213 20215     9 
20207 20210 20213 20216     9 
20211 20210 20213 20214     9 
20211 20210 20213 20215     9 
20211 20210 20213 20216     9 
20212 20210 20213 20214     9 
20212 20210 20213 20215     9 
20212 20210 20213 20216     9 
20210 20213 20216 20217     9 
20210 20213 20216 20218     9 
20210 20213 20216 20219     9 
20214 20213 20216 20217     9 
20214 20213 20216 20218     9 
20214 20213 20216 20219     9 
20215 20213 20216 20217     9 
20215 20213 20216 20218     9 
20215 20213 20216 20219     9 
20213 20216 20219 20220     9 
20213 20216 20219 20221     9 
20213 20216 20219 20222     9 
20217 20216 20219 20220     9 
20217 20216 20219 20221     9 
20217 20216 20219 20222     9 
20218 20216 20219 20220     9 
20218 20216 20219 20221     9 
20218 20216 20219 20222     9 
20216 20219 20222 20223     9 
20216 20219 20222 20224     9 
20216 20219 20222 20225     9 
20220 20219 20222 20223     9 
20220 20219 20222 20224     9 
20220 20219 20222 20225     9 
20221 20219 20222 20223     9 
20221 20219 20222 20224     9 
20221 20219 20222 20225     9 
20219 20222 20225 20226     9 
20219 20222 20225 20227     9 
20219 20222 20225 20228     9 
20223 20222 20225 20226     9 
20223 20222 20225 20227     9 
20223 20222 20225 20228     9 
20224 20222 20225 20226     9 
20224 20222 20225 20227     9 
20224 20222 20225 20228     9 
20222 20225 20228 20229     9 
20222 20225 20228 20230     9 
20222 20225 20228 20231     9 
20226 20225 20228 20229     9 
20226 20225 20228 20230     9 
20226 20225 20228 20231     9 
20227 20225 20228 20229     9 
20227 20225 20228 20230     9 
20227 20225 20228 20231     9 
20225 20228 20231 20232     9 
20225 20228 20231 20233     9 
20225 20228 20231 20234     9 
20229 20228 20231 20232     9 
20229 20228 20231 20233     9 
20229 20228 20231 20234     9 
20230 20228 20231 20232     9 
20230 20228 20231 20233     9 
20230 20228 20231 20234     9 
20239 20235 20236 20237     9 
20239 20235 20236 20238     9 
20239 20235 20236 20251     9 
20243 20235 20236 20237     9 
20243 20235 20236 20238     9 
20243 20235 20236 20251     9 
20247 20235 20236 20237     9 
20247 20235 20236 20238     9 
20247 20235 20236 20251     9 
20236 20235 20239 20240     9 
20236 20235 20239 20241     9 
20236 20235 20239 20242     9 
20243 20235 20239 20240     9 
20243 20235 20239 20241     9 
20243 20235 20239 20242     9 
20247 20235 20239 20240     9 
20247 20235 20239 20241     9 
20247 20235 20239 20242     9 
20236 20235 20243 20244     9 
20236 20235 20243 20245     9 
20236 20235 20243 20246     9 
20239 20235 20243 20244     9 
20239 20235 20243 20245     9 
20239 20235 20243 20246     9 
20247 20235 20243 20244     9 
20247 20235 20243 20245     9 
20247 20235 20243 20246     9 
20236 20235 20247 20248     9 
20236 20235 20247 20249     9 
20236 20235 20247 20250     9 
20239 20235 20247 20248     9 
20239 20235 20247 20249     9 
20239 20235 20247 20250     9 
20243 20235 20247 20248     9 
20243 20235 20247 20249     9 
20243 20235 20247 20250     9 
20235 20236 20251 20252     9 
20235 20236 20251 20253     9 
20235 20236 20251 20257     9 
20237 20236 20251 20252     9 
20237 20236 20251 20253     9 
20237 20236 20251 20257     9 
20238 20236 20251 20252     9 
20238 20236 20251 20253     9 
20238 20236 20251 20257     9 
20236 20251 20257 20254     9 
20252 20251 20257 20254     9 
20253 20251 20257 20254     9 
20255 20254 20257 20251     9 
20256 20254 20257 20251     9 
20258 20254 20257 20251     9 
20255 20254 20258 20259     9 
20256 20254 20258 20259     9 
20257 20254 20258 20259     9 
20254 20258 20259 20260     9 
20254 20258 20259 20261     9 
20254 20258 20259 20262     9 
20258 20259 20262 20263     9 
20258 20259 20262 20264     9 
20258 20259 20262 20270     9 
20260 20259 20262 20263     9 
20260 20259 20262 20264     9 
20260 20259 20262 20270     9 
20261 20259 20262 20263     9 
20261 20259 20262 20264     9 
20261 20259 20262 20270     9 
20259 20262 20264 20265     9 
20263 20262 20264 20265     9 
20270 20262 20264 20265     9 
20259 20262 20270 20271     9 
20259 20262 20270 20272     9 
20259 20262 20270 20273     9 
20263 20262 20270 20271     9 
20263 20262 20270 20272     9 
20263 20262 20270 20273     9 
20264 20262 20270 20271     9 
20264 20262 20270 20272     9 
20264 20262 20270 20273     9 
20262 20264 20265 20266     9 
20262 20264 20265 20267     9 
20264 20265 20267 20268     9 
20264 20265 20267 20269     9 
20264 20265 20267 20279     9 
20266 20265 20267 20268     9 
20266 20265 20267 20269     9 
20266 20265 20267 20279     9 
20265 20267 20279 20280     9 
20265 20267 20279 20281     9 
20265 20267 20279 20282     9 
20268 20267 20279 20280     9 
20268 20267 20279 20281     9 
20268 20267 20279 20282     9 
20269 20267 20279 20280     9 
20269 20267 20279 20281     9 
20269 20267 20279 20282     9 
20262 20270 20273 20274     9 
20271 20270 20273 20274     9 
20272 20270 20273 20274     9 
20270 20273 20274 20275     9 
20270 20273 20274 20276     9 
20273 20274 20276 20277     9 
20273 20274 20276 20278     9 
20273 20274 20276 20326     9 
20275 20274 20276 20277     9 
20275 20274 20276 20278     9 
20275 20274 20276 20326     9 
20274 20276 20326 20327     9 
20274 20276 20326 20328     9 
20274 20276 20326 20329     9 
20277 20276 20326 20327     9 
20277 20276 20326 20328     9 
20277 20276 20326 20329     9 
20278 20276 20326 20327     9 
20278 20276 20326 20328     9 
20278 20276 20326 20329     9 
20267 20279 20282 20283     9 
20267 20279 20282 20284     9 
20267 20279 20282 20285     9 
20280 20279 20282 20283     9 
20280 20279 20282 20284     9 
20280 20279 20282 20285     9 
20281 20279 20282 20283     9 
20281 20279 20282 20284     9 
20281 20279 20282 20285     9 
20279 20282 20285 20286     9 
20279 20282 20285 20287     9 
20279 20282 20285 20288     9 
20283 20282 20285 20286     9 
20283 20282 20285 20287     9 
20283 20282 20285 20288     9 
20284 20282 20285 20286     9 
20284 20282 20285 20287     9 
20284 20282 20285 20288     9 
20282 20285 20288 20289     9 
20282 20285 20288 20290     9 
20282 20285 20288 20291     9 
20286 20285 20288 20289     9 
20286 20285 20288 20290     9 
20286 20285 20288 20291     9 
20287 20285 20288 20289     9 
20287 20285 20288 20290     9 
20287 20285 20288 20291     9 
20285 20288 20291 20292     9 
20285 20288 20291 20293     9 
20285 20288 20291 20294     9 
20289 20288 20291 20292     9 
20289 20288 20291 20293     9 
20289 20288 20291 20294     9 
20290 20288 20291 20292     9 
20290 20288 20291 20293     9 
20290 20288 20291 20294     9 
20288 20291 20294 20295     9 
20288 20291 20294 20296     9 
20288 20291 20294 20297     9 
20292 20291 20294 20295     9 
20292 20291 20294 20296     9 
20292 20291 20294 20297     9 
20293 20291 20294 20295     9 
20293 20291 20294 20296     9 
20293 20291 20294 20297     9 
20291 20294 20297 20298     9 
20291 20294 20297 20299     9 
20295 20294 20297 20298     9 
20295 20294 20297 20299     9 
20296 20294 20297 20298     9 
20296 20294 20297 20299     9 
20294 20297 20299 20300     9 
20294 20297 20299 20301     9 
20298 20297 20299 20300     9 
20298 20297 20299 20301     9 
20297 20299 20301 20302     9 
20297 20299 20301 20303     9 
20297 20299 20301 20304     9 
20300 20299 20301 20302     9 
20300 20299 20301 20303     9 
20300 20299 20301 20304     9 
20299 20301 20304 20305     9 
20299 20301 20304 20306     9 
20299 20301 20304 20307     9 
20302 20301 20304 20305     9 
20302 20301 20304 20306     9 
20302 20301 20304 20307     9 
20303 20301 20304 20305     9 
20303 20301 20304 20306     9 
20303 20301 20304 20307     9 
20301 20304 20307 20308     9 
20301 20304 20307 20309     9 
20301 20304 20307 20310     9 
20305 20304 20307 20308     9 
20305 20304 20307 20309     9 
20305 20304 20307 20310     9 
20306 20304 20307 20308     9 
20306 20304 20307 20309     9 
20306 20304 20307 20310     9 
20304 20307 20310 20311     9 
20304 20307 20310 20312     9 
20304 20307 20310 20313     9 
20308 20307 20310 20311     9 
20308 20307 20310 20312     9 
20308 20307 20310 20313     9 
20309 20307 20310 20311     9 
20309 20307 20310 20312     9 
20309 20307 20310 20313     9 
20307 20310 20313 20314     9 
20307 20310 20313 20315     9 
20307 20310 20313 20316     9 
20311 20310 20313 20314     9 
20311 20310 20313 20315     9 
20311 20310 20313 20316     9 
20312 20310 20313 20314     9 
20312 20310 20313 20315     9 
20312 20310 20313 20316     9 
20310 20313 20316 20317     9 
20310 20313 20316 20318     9 
20310 20313 20316 20319     9 
20314 20313 20316 20317     9 
20314 20313 20316 20318     9 
20314 20313 20316 20319     9 
20315 20313 20316 20317     9 
20315 20313 20316 20318     9 
20315 20313 20316 20319     9 
20313 20316 20319 20320     9 
20313 20316 20319 20321     9 
20313 20316 20319 20322     9 
20317 20316 20319 20320     9 
20317 20316 20319 20321     9 
20317 20316 20319 20322     9 
20318 20316 20319 20320     9 
20318 20316 20319 20321     9 
20318 20316 20319 20322     9 
20316 20319 20322 20323     9 
20316 20319 20322 20324     9 
20316 20319 20322 20325     9 
20320 20319 20322 20323     9 
20320 20319 20322 20324     9 
20320 20319 20322 20325     9 
20321 20319 20322 20323     9 
20321 20319 20322 20324     9 
20321 20319 20322 20325     9 
20276 20326 20329 20330     9 
20276 20326 20329 20331     9 
20276 20326 20329 20332     9 
20327 20326 20329 20330     9 
20327 20326 20329 20331     9 
20327 20326 20329 20332     9 
20328 20326 20329 20330     9 
20328 20326 20329 20331     9 
20328 20326 20329 20332     9 
20326 20329 20332 20333     9 
20326 20329 20332 20334     9 
20326 20329 20332 20335     9 
20330 20329 20332 20333     9 
20330 20329 20332 20334     9 
20330 20329 20332 20335     9 
20331 20329 20332 20333     9 
20331 20329 20332 20334     9 
20331 20329 20332 20335     9 
20329 20332 20335 20336     9 
20329 20332 20335 20337     9 
20329 20332 20335 20338     9 
20333 20332 20335 20336     9 
20333 20332 20335 20337     9 
20333 20332 20335 20338     9 
20334 20332 20335 20336     9 
20334 20332 20335 20337     9 
20334 20332 20335 20338     9 
20332 20335 20338 20339     9 
20332 20335 20338 20340     9 
20332 20335 20338 20341     9 
20336 20335 20338 20339     9 
20336 20335 20338 20340     9 
20336 20335 20338 20341     9 
20337 20335 20338 20339     9 
20337 20335 20338 20340     9 
20337 20335 20338 20341     9 
20335 20338 20341 20342     9 
20335 20338 20341 20343     9 
20335 20338 20341 20344     9 
20339 20338 20341 20342     9 
20339 20338 20341 20343     9 
20339 20338 20341 20344     9 
20340 20338 20341 20342     9 
20340 20338 20341 20343     9 
20340 20338 20341 20344     9 
20338 20341 20344 20345     9 
20338 20341 20344 20346     9 
20338 20341 20344 20347     9 
20342 20341 20344 20345     9 
20342 20341 20344 20346     9 
20342 20341 20344 20347     9 
20343 20341 20344 20345     9 
20343 20341 20344 20346     9 
20343 20341 20344 20347     9 
20341 20344 20347 20348     9 
20341 20344 20347 20349     9 
20341 20344 20347 20350     9 
20345 20344 20347 20348     9 
20345 20344 20347 20349     9 
20345 20344 20347 20350     9 
20346 20344 20347 20348     9 
20346 20344 20347 20349     9 
20346 20344 20347 20350     9 
20344 20347 20350 20351     9 
20344 20347 20350 20352     9 
20344 20347 20350 20353     9 
20348 20347 20350 20351     9 
20348 20347 20350 20352     9 
20348 20347 20350 20353     9 
20349 20347 20350 20351     9 
20349 20347 20350 20352     9 
20349 20347 20350 20353     9 
20347 20350 20353 20354     9 
20347 20350 20353 20355     9 
20347 20350 20353 20356     9 
20351 20350 20353 20354     9 
20351 20350 20353 20355     9 
20351 20350 20353 20356     9 
20352 20350 20353 20354     9 
20352 20350 20353 20355     9 
20352 20350 20353 20356     9 
20350 20353 20356 20357     9 
20350 20353 20356 20358     9 
20350 20353 20356 20359     9 
20354 20353 20356 20357     9 
20354 20353 20356 20358     9 
20354 20353 20356 20359     9 
20355 20353 20356 20357     9 
20355 20353 20356 20358     9 
20355 20353 20356 20359     9 
20353 20356 20359 20360     9 
20353 20356 20359 20361     9 
20353 20356 20359 20362     9 
20357 20356 20359 20360     9 
20357 20356 20359 20361     9 
20357 20356 20359 20362     9 
20358 20356 20359 20360     9 
20358 20356 20359 20361     9 
20358 20356 20359 20362     9 
20356 20359 20362 20363     9 
20356 20359 20362 20364     9 
20356 20359 20362 20365     9 
20360 20359 20362 20363     9 
20360 20359 20362 20364     9 
20360 20359 20362 20365     9 
20361 20359 20362 20363     9 
20361 20359 20362 20364     9 
20361 20359 20362 20365     9 
20359 20362 20365 20366     9 
20359 20362 20365 20367     9 
20359 20362 20365 20368     9 
20363 20362 20365 20366     9 
20363 20362 20365 20367     9 
20363 20362 20365 20368     9 
20364 20362 20365 20366     9 
20364 20362 20365 20367     9 
20364 20362 20365 20368     9 
20373 20369 20370 20371     9 
20373 20369 20370 20372     9 
20373 20369 20370 20385     9 
20377 20369 20370 20371     9 
20377 20369 20370 20372     9 
20377 20369 20370 20385     9 
20381 20369 20370 20371     9 
20381 20369 20370 20372     9 
20381 20369 20370 20385     9 
20370 20369 20373 20374     9 
20370 20369 20373 20375     9 
20370 20369 20373 20376     9 
20377 20369 20373 20374     9 
20377 20369 20373 20375     9 
20377 20369 20373 20376     9 
20381 20369 20373 20374     9 
20381 20369 20373 20375     9 
20381 20369 20373 20376     9 
20370 20369 20377 20378     9 
20370 20369 20377 20379     9 
20370 20369 20377 20380     9 
20373 20369 20377 20378     9 
20373 20369 20377 20379     9 
20373 20369 20377 20380     9 
20381 20369 20377 20378     9 
20381 20369 20377 20379     9 
20381 20369 20377 20380     9 
20370 20369 20381 20382     9 
20370 20369 20381 20383     9 
20370 20369 20381 20384     9 
20373 20369 20381 20382     9 
20373 20369 20381 20383     9 
20373 20369 20381 20384     9 
20377 20369 20381 20382     9 
20377 20369 20381 20383     9 
20377 20369 20381 20384     9 
20369 20370 20385 20386     9 
20369 20370 20385 20387     9 
20369 20370 20385 20391     9 
20371 20370 20385 20386     9 
20371 20370 20385 20387     9 
20371 20370 20385 20391     9 
20372 20370 20385 20386     9 
20372 20370 20385 20387     9 
20372 20370 20385 20391     9 
20370 20385 20391 20388     9 
20386 20385 20391 20388     9 
20387 20385 20391 20388     9 
20389 20388 20391 20385     9 
20390 20388 20391 20385     9 
20392 20388 20391 20385     9 
20389 20388 20392 20393     9 
20390 20388 20392 20393     9 
20391 20388 20392 20393     9 
20388 20392 20393 20394     9 
20388 20392 20393 20395     9 
20388 20392 20393 20396     9 
20392 20393 20396 20397     9 
20392 20393 20396 20398     9 
20392 20393 20396 20404     9 
20394 20393 20396 20397     9 
20394 20393 20396 20398     9 
20394 20393 20396 20404     9 
20395 20393 20396 20397     9 
20395 20393 20396 20398     9 
20395 20393 20396 20404     9 
20393 20396 20398 20399     9 
20397 20396 20398 20399     9 
20404 20396 20398 20399     9 
20393 20396 20404 20405     9 
20393 20396 20404 20406     9 
20393 20396 20404 20407     9 
20397 20396 20404 20405     9 
20397 20396 20404 20406     9 
20397 20396 20404 20407     9 
20398 20396 20404 20405     9 
20398 20396 20404 20406     9 
20398 20396 20404 20407     9 
20396 20398 20399 20400     9 
20396 20398 20399 20401     9 
20398 20399 20401 20402     9 
20398 20399 20401 20403     9 
20398 20399 20401 20413     9 
20400 20399 20401 20402     9 
20400 20399 20401 20403     9 
20400 20399 20401 20413     9 
20399 20401 20413 20414     9 
20399 20401 20413 20415     9 
20399 20401 20413 20416     9 
20402 20401 20413 20414     9 
20402 20401 20413 20415     9 
20402 20401 20413 20416     9 
20403 20401 20413 20414     9 
20403 20401 20413 20415     9 
20403 20401 20413 20416     9 
20396 20404 20407 20408     9 
20405 20404 20407 20408     9 
20406 20404 20407 20408     9 
20404 20407 20408 20409     9 
20404 20407 20408 20410     9 
20407 20408 20410 20411     9 
20407 20408 20410 20412     9 
20407 20408 20410 20460     9 
20409 20408 20410 20411     9 
20409 20408 20410 20412     9 
20409 20408 20410 20460     9 
20408 20410 20460 20461     9 
20408 20410 20460 20462     9 
20408 20410 20460 20463     9 
20411 20410 20460 20461     9 
20411 20410 20460 20462     9 
20411 20410 20460 20463     9 
20412 20410 20460 20461     9 
20412 20410 20460 20462     9 
20412 20410 20460 20463     9 
20401 20413 20416 20417     9 
20401 20413 20416 20418     9 
20401 20413 20416 20419     9 
20414 20413 20416 20417     9 
20414 20413 20416 20418     9 
20414 20413 20416 20419     9 
20415 20413 20416 20417     9 
20415 20413 20416 20418     9 
20415 20413 20416 20419     9 
20413 20416 20419 20420     9 
20413 20416 20419 20421     9 
20413 20416 20419 20422     9 
20417 20416 20419 20420     9 
20417 20416 20419 20421     9 
20417 20416 20419 20422     9 
20418 20416 20419 20420     9 
20418 20416 20419 20421     9 
20418 20416 20419 20422     9 
20416 20419 20422 20423     9 
20416 20419 20422 20424     9 
20416 20419 20422 20425     9 
20420 20419 20422 20423     9 
20420 20419 20422 20424     9 
20420 20419 20422 20425     9 
20421 20419 20422 20423     9 
20421 20419 20422 20424     9 
20421 20419 20422 20425     9 
20419 20422 20425 20426     9 
20419 20422 20425 20427     9 
20419 20422 20425 20428     9 
20423 20422 20425 20426     9 
20423 20422 20425 20427     9 
20423 20422 20425 20428     9 
20424 20422 20425 20426     9 
20424 20422 20425 20427     9 
20424 20422 20425 20428     9 
20422 20425 20428 20429     9 
20422 20425 20428 20430     9 
20422 20425 20428 20431     9 
20426 20425 20428 20429     9 
20426 20425 20428 20430     9 
20426 20425 20428 20431     9 
20427 20425 20428 20429     9 
20427 20425 20428 20430     9 
20427 20425 20428 20431     9 
20425 20428 20431 20432     9 
20425 20428 20431 20433     9 
20429 20428 20431 20432     9 
20429 20428 20431 20433     9 
20430 20428 20431 20432     9 
20430 20428 20431 20433     9 
20428 20431 20433 20434     9 
20428 20431 20433 20435     9 
20432 20431 20433 20434     9 
20432 20431 20433 20435     9 
20431 20433 20435 20436     9 
20431 20433 20435 20437     9 
20431 20433 20435 20438     9 
20434 20433 20435 20436     9 
20434 20433 20435 20437     9 
20434 20433 20435 20438     9 
20433 20435 20438 20439     9 
20433 20435 20438 20440     9 
20433 20435 20438 20441     9 
20436 20435 20438 20439     9 
20436 20435 20438 20440     9 
20436 20435 20438 20441     9 
20437 20435 20438 20439     9 
20437 20435 20438 20440     9 
20437 20435 20438 20441     9 
20435 20438 20441 20442     9 
20435 20438 20441 20443     9 
20435 20438 20441 20444     9 
20439 20438 20441 20442     9 
20439 20438 20441 20443     9 
20439 20438 20441 20444     9 
20440 20438 20441 20442     9 
20440 20438 20441 20443     9 
20440 20438 20441 20444     9 
20438 20441 20444 20445     9 
20438 20441 20444 20446     9 
20438 20441 20444 20447     9 
20442 20441 20444 20445     9 
20442 20441 20444 20446     9 
20442 20441 20444 20447     9 
20443 20441 20444 20445     9 
20443 20441 20444 20446     9 
20443 20441 20444 20447     9 
20441 20444 20447 20448     9 
20441 20444 20447 20449     9 
20441 20444 20447 20450     9 
20445 20444 20447 20448     9 
20445 20444 20447 20449     9 
20445 20444 20447 20450     9 
20446 20444 20447 20448     9 
20446 20444 20447 20449     9 
20446 20444 20447 20450     9 
20444 20447 20450 20451     9 
20444 20447 20450 20452     9 
20444 20447 20450 20453     9 
20448 20447 20450 20451     9 
20448 20447 20450 20452     9 
20448 20447 20450 20453     9 
20449 20447 20450 20451     9 
20449 20447 20450 20452     9 
20449 20447 20450 20453     9 
20447 20450 20453 20454     9 
20447 20450 20453 20455     9 
20447 20450 20453 20456     9 
20451 20450 20453 20454     9 
20451 20450 20453 20455     9 
20451 20450 20453 20456     9 
20452 20450 20453 20454     9 
20452 20450 20453 20455     9 
20452 20450 20453 20456     9 
20450 20453 20456 20457     9 
20450 20453 20456 20458     9 
20450 20453 20456 20459     9 
20454 20453 20456 20457     9 
20454 20453 20456 20458     9 
20454 20453 20456 20459     9 
20455 20453 20456 20457     9 
20455 20453 20456 20458     9 
20455 20453 20456 20459     9 
20410 20460 20463 20464     9 
20410 20460 20463 20465     9 
20410 20460 20463 20466     9 
20461 20460 20463 20464     9 
20461 20460 20463 20465     9 
20461 20460 20463 20466     9 
20462 20460 20463 20464     9 
20462 20460 20463 20465     9 
20462 20460 20463 20466     9 
20460 20463 20466 20467     9 
20460 20463 20466 20468     9 
20460 20463 20466 20469     9 
20464 20463 20466 20467     9 
20464 20463 20466 20468     9 
20464 20463 20466 20469     9 
20465 20463 20466 20467     9 
20465 20463 20466 20468     9 
20465 20463 20466 20469     9 
20463 20466 20469 20470     9 
20463 20466 20469 20471     9 
20463 20466 20469 20472     9 
20467 20466 20469 20470     9 
20467 20466 20469 20471     9 
20467 20466 20469 20472     9 
20468 20466 20469 20470     9 
20468 20466 20469 20471     9 
20468 20466 20469 20472     9 
20466 20469 20472 20473     9 
20466 20469 20472 20474     9 
20466 20469 20472 20475     9 
20470 20469 20472 20473     9 
20470 20469 20472 20474     9 
20470 20469 20472 20475     9 
20471 20469 20472 20473     9 
20471 20469 20472 20474     9 
20471 20469 20472 20475     9 
20469 20472 20475 20476     9 
20469 20472 20475 20477     9 
20469 20472 20475 20478     9 
20473 20472 20475 20476     9 
20473 20472 20475 20477     9 
20473 20472 20475 20478     9 
20474 20472 20475 20476     9 
20474 20472 20475 20477     9 
20474 20472 20475 20478     9 
20472 20475 20478 20479     9 
20472 20475 20478 20480     9 
20472 20475 20478 20481     9 
20476 20475 20478 20479     9 
20476 20475 20478 20480     9 
20476 20475 20478 20481     9 
20477 20475 20478 20479     9 
20477 20475 20478 20480     9 
20477 20475 20478 20481     9 
20475 20478 20481 20482     9 
20475 20478 20481 20483     9 
20475 20478 20481 20484     9 
20479 20478 20481 20482     9 
20479 20478 20481 20483     9 
20479 20478 20481 20484     9 
20480 20478 20481 20482     9 
20480 20478 20481 20483     9 
20480 20478 20481 20484     9 
20478 20481 20484 20485     9 
20478 20481 20484 20486     9 
20478 20481 20484 20487     9 
20482 20481 20484 20485     9 
20482 20481 20484 20486     9 
20482 20481 20484 20487     9 
20483 20481 20484 20485     9 
20483 20481 20484 20486     9 
20483 20481 20484 20487     9 
20481 20484 20487 20488     9 
20481 20484 20487 20489     9 
20481 20484 20487 20490     9 
20485 20484 20487 20488     9 
20485 20484 20487 20489     9 
20485 20484 20487 20490     9 
20486 20484 20487 20488     9 
20486 20484 20487 20489     9 
20486 20484 20487 20490     9 
20484 20487 20490 20491     9 
20484 20487 20490 20492     9 
20484 20487 20490 20493     9 
20488 20487 20490 20491     9 
20488 20487 20490 20492     9 
20488 20487 20490 20493     9 
20489 20487 20490 20491     9 
20489 20487 20490 20492     9 
20489 20487 20490 20493     9 
20487 20490 20493 20494     9 
20487 20490 20493 20495     9 
20487 20490 20493 20496     9 
20491 20490 20493 20494     9 
20491 20490 20493 20495     9 
20491 20490 20493 20496     9 
20492 20490 20493 20494     9 
20492 20490 20493 20495     9 
20492 20490 20493 20496     9 
20490 20493 20496 20497     9 
20490 20493 20496 20498     9 
20490 20493 20496 20499     9 
20494 20493 20496 20497     9 
20494 20493 20496 20498     9 
20494 20493 20496 20499     9 
20495 20493 20496 20497     9 
20495 20493 20496 20498     9 
20495 20493 20496 20499     9 
20493 20496 20499 20500     9 
20493 20496 20499 20501     9 
20493 20496 20499 20502     9 
20497 20496 20499 20500     9 
20497 20496 20499 20501     9 
20497 20496 20499 20502     9 
20498 20496 20499 20500     9 
20498 20496 20499 20501     9 
20498 20496 20499 20502     9 
20507 20503 20504 20505     9 
20507 20503 20504 20506     9 
20507 20503 20504 20519     9 
20511 20503 20504 20505     9 
20511 20503 20504 20506     9 
20511 20503 20504 20519     9 
20515 20503 20504 20505     9 
20515 20503 20504 20506     9 
20515 20503 20504 20519     9 
20504 20503 20507 20508     9 
20504 20503 20507 20509     9 
20504 20503 20507 20510     9 
20511 20503 20507 20508     9 
20511 20503 20507 20509     9 
20511 20503 20507 20510     9 
20515 20503 20507 20508     9 
20515 20503 20507 20509     9 
20515 20503 20507 20510     9 
20504 20503 20511 20512     9 
20504 20503 20511 20513     9 
20504 20503 20511 20514     9 
20507 20503 20511 20512     9 
20507 20503 20511 20513     9 
20507 20503 20511 20514     9 
20515 20503 20511 20512     9 
20515 20503 20511 20513     9 
20515 20503 20511 20514     9 
20504 20503 20515 20516     9 
20504 20503 20515 20517     9 
20504 20503 20515 20518     9 
20507 20503 20515 20516     9 
20507 20503 20515 20517     9 
20507 20503 20515 20518     9 
20511 20503 20515 20516     9 
20511 20503 20515 20517     9 
20511 20503 20515 20518     9 
20503 20504 20519 20520     9 
20503 20504 20519 20521     9 
20503 20504 20519 20525     9 
20505 20504 20519 20520     9 
20505 20504 20519 20521     9 
20505 20504 20519 20525     9 
20506 20504 20519 20520     9 
20506 20504 20519 20521     9 
20506 20504 20519 20525     9 
20504 20519 20525 20522     9 
20520 20519 20525 20522     9 
20521 20519 20525 20522     9 
20523 20522 20525 20519     9 
20524 20522 20525 20519     9 
20526 20522 20525 20519     9 
20523 20522 20526 20527     9 
20524 20522 20526 20527     9 
20525 20522 20526 20527     9 
20522 20526 20527 20528     9 
20522 20526 20527 20529     9 
20522 20526 20527 20530     9 
20526 20527 20530 20531     9 
20526 20527 20530 20532     9 
20526 20527 20530 20538     9 
20528 20527 20530 20531     9 
20528 20527 20530 20532     9 
20528 20527 20530 20538     9 
20529 20527 20530 20531     9 
20529 20527 20530 20532     9 
20529 20527 20530 20538     9 
20527 20530 20532 20533     9 
20531 20530 20532 20533     9 
20538 20530 20532 20533     9 
20527 20530 20538 20539     9 
20527 20530 20538 20540     9 
20527 20530 20538 20541     9 
20531 20530 20538 20539     9 
20531 20530 20538 20540     9 
20531 20530 20538 20541     9 
20532 20530 20538 20539     9 
20532 20530 20538 20540     9 
20532 20530 20538 20541     9 
20530 20532 20533 20534     9 
20530 20532 20533 20535     9 
20532 20533 20535 20536     9 
20532 20533 20535 20537     9 
20532 20533 20535 20547     9 
20534 20533 20535 20536     9 
20534 20533 20535 20537     9 
20534 20533 20535 20547     9 
20533 20535 20547 20548     9 
20533 20535 20547 20549     9 
20533 20535 20547 20550     9 
20536 20535 20547 20548     9 
20536 20535 20547 20549     9 
20536 20535 20547 20550     9 
20537 20535 20547 20548     9 
20537 20535 20547 20549     9 
20537 20535 20547 20550     9 
20530 20538 20541 20542     9 
20539 20538 20541 20542     9 
20540 20538 20541 20542     9 
20538 20541 20542 20543     9 
20538 20541 20542 20544     9 
20541 20542 20544 20545     9 
20541 20542 20544 20546     9 
20541 20542 20544 20594     9 
20543 20542 20544 20545     9 
20543 20542 20544 20546     9 
20543 20542 20544 20594     9 
20542 20544 20594 20595     9 
20542 20544 20594 20596     9 
20542 20544 20594 20597     9 
20545 20544 20594 20595     9 
20545 20544 20594 20596     9 
20545 20544 20594 20597     9 
20546 20544 20594 20595     9 
20546 20544 20594 20596     9 
20546 20544 20594 20597     9 
20535 20547 20550 20551     9 
20535 20547 20550 20552     9 
20535 20547 20550 20553     9 
20548 20547 20550 20551     9 
20548 20547 20550 20552     9 
20548 20547 20550 20553     9 
20549 20547 20550 20551     9 
20549 20547 20550 20552     9 
20549 20547 20550 20553     9 
20547 20550 20553 20554     9 
20547 20550 20553 20555     9 
20547 20550 20553 20556     9 
20551 20550 20553 20554     9 
20551 20550 20553 20555     9 
20551 20550 20553 20556     9 
20552 20550 20553 20554     9 
20552 20550 20553 20555     9 
20552 20550 20553 20556     9 
20550 20553 20556 20557     9 
20550 20553 20556 20558     9 
20550 20553 20556 20559     9 
20554 20553 20556 20557     9 
20554 20553 20556 20558     9 
20554 20553 20556 20559     9 
20555 20553 20556 20557     9 
20555 20553 20556 20558     9 
20555 20553 20556 20559     9 
20553 20556 20559 20560     9 
20553 20556 20559 20561     9 
20553 20556 20559 20562     9 
20557 20556 20559 20560     9 
20557 20556 20559 20561     9 
20557 20556 20559 20562     9 
20558 20556 20559 20560     9 
20558 20556 20559 20561     9 
20558 20556 20559 20562     9 
20556 20559 20562 20563     9 
20556 20559 20562 20564     9 
20556 20559 20562 20565     9 
20560 20559 20562 20563     9 
20560 20559 20562 20564     9 
20560 20559 20562 20565     9 
20561 20559 20562 20563     9 
20561 20559 20562 20564     9 
20561 20559 20562 20565     9 
20559 20562 20565 20566     9 
20559 20562 20565 20567     9 
20563 20562 20565 20566     9 
20563 20562 20565 20567     9 
20564 20562 20565 20566     9 
20564 20562 20565 20567     9 
20562 20565 20567 20568     9 
20562 20565 20567 20569     9 
20566 20565 20567 20568     9 
20566 20565 20567 20569     9 
20565 20567 20569 20570     9 
20565 20567 20569 20571     9 
20565 20567 20569 20572     9 
20568 20567 20569 20570     9 
20568 20567 20569 20571     9 
20568 20567 20569 20572     9 
20567 20569 20572 20573     9 
20567 20569 20572 20574     9 
20567 20569 20572 20575     9 
20570 20569 20572 20573     9 
20570 20569 20572 20574     9 
20570 20569 20572 20575     9 
20571 20569 20572 20573     9 
20571 20569 20572 20574     9 
20571 20569 20572 20575     9 
20569 20572 20575 20576     9 
20569 20572 20575 20577     9 
20569 20572 20575 20578     9 
20573 20572 20575 20576     9 
20573 20572 20575 20577     9 
20573 20572 20575 20578     9 
20574 20572 20575 20576     9 
20574 20572 20575 20577     9 
20574 20572 20575 20578     9 
20572 20575 20578 20579     9 
20572 20575 20578 20580     9 
20572 20575 20578 20581     9 
20576 20575 20578 20579     9 
20576 20575 20578 20580     9 
20576 20575 20578 20581     9 
20577 20575 20578 20579     9 
20577 20575 20578 20580     9 
20577 20575 20578 20581     9 
20575 20578 20581 20582     9 
20575 20578 20581 20583     9 
20575 20578 20581 20584     9 
20579 20578 20581 20582     9 
20579 20578 20581 20583     9 
20579 20578 20581 20584     9 
20580 20578 20581 20582     9 
20580 20578 20581 20583     9 
20580 20578 20581 20584     9 
20578 20581 20584 20585     9 
20578 20581 20584 20586     9 
20578 20581 20584 20587     9 
20582 20581 20584 20585     9 
20582 20581 20584 20586     9 
20582 20581 20584 20587     9 
20583 20581 20584 20585     9 
20583 20581 20584 20586     9 
20583 20581 20584 20587     9 
20581 20584 20587 20588     9 
20581 20584 20587 20589     9 
20581 20584 20587 20590     9 
20585 20584 20587 20588     9 
20585 20584 20587 20589     9 
20585 20584 20587 20590     9 
20586 20584 20587 20588     9 
20586 20584 20587 20589     9 
20586 20584 20587 20590     9 
20584 20587 20590 20591     9 
20584 20587 20590 20592     9 
20584 20587 20590 20593     9 
20588 20587 20590 20591     9 
20588 20587 20590 20592     9 
20588 20587 20590 20593     9 
20589 20587 20590 20591     9 
20589 20587 20590 20592     9 
20589 20587 20590 20593     9 
20544 20594 20597 20598     9 
20544 20594 20597 20599     9 
20544 20594 20597 20600     9 
20595 20594 20597 20598     9 
20595 20594 20597 20599     9 
20595 20594 20597 20600     9 
20596 20594 20597 20598     9 
20596 20594 20597 20599     9 
20596 20594 20597 20600     9 
20594 20597 20600 20601     9 
20594 20597 20600 20602     9 
20594 20597 20600 20603     9 
20598 20597 20600 20601     9 
20598 20597 20600 20602     9 
20598 20597 20600 20603     9 
20599 20597 20600 20601     9 
20599 20597 20600 20602     9 
20599 20597 20600 20603     9 
20597 20600 20603 20604     9 
20597 20600 20603 20605     9 
20597 20600 20603 20606     9 
20601 20600 20603 20604     9 
20601 20600 20603 20605     9 
20601 20600 20603 20606     9 
20602 20600 20603 20604     9 
20602 20600 20603 20605     9 
20602 20600 20603 20606     9 
20600 20603 20606 20607     9 
20600 20603 20606 20608     9 
20600 20603 20606 20609     9 
20604 20603 20606 20607     9 
20604 20603 20606 20608     9 
20604 20603 20606 20609     9 
20605 20603 20606 20607     9 
20605 20603 20606 20608     9 
20605 20603 20606 20609     9 
20603 20606 20609 20610     9 
20603 20606 20609 20611     9 
20603 20606 20609 20612     9 
20607 20606 20609 20610     9 
20607 20606 20609 20611     9 
20607 20606 20609 20612     9 
20608 20606 20609 20610     9 
20608 20606 20609 20611     9 
20608 20606 20609 20612     9 
20606 20609 20612 20613     9 
20606 20609 20612 20614     9 
20606 20609 20612 20615     9 
20610 20609 20612 20613     9 
20610 20609 20612 20614     9 
20610 20609 20612 20615     9 
20611 20609 20612 20613     9 
20611 20609 20612 20614     9 
20611 20609 20612 20615     9 
20609 20612 20615 20616     9 
20609 20612 20615 20617     9 
20609 20612 20615 20618     9 
20613 20612 20615 20616     9 
20613 20612 20615 20617     9 
20613 20612 20615 20618     9 
20614 20612 20615 20616     9 
20614 20612 20615 20617     9 
20614 20612 20615 20618     9 
20612 20615 20618 20619     9 
20612 20615 20618 20620     9 
20612 20615 20618 20621     9 
20616 20615 20618 20619     9 
20616 20615 20618 20620     9 
20616 20615 20618 20621     9 
20617 20615 20618 20619     9 
20617 20615 20618 20620     9 
20617 20615 20618 20621     9 
20615 20618 20621 20622     9 
20615 20618 20621 20623     9 
20615 20618 20621 20624     9 
20619 20618 20621 20622     9 
20619 20618 20621 20623     9 
20619 20618 20621 20624     9 
20620 20618 20621 20622     9 
20620 20618 20621 20623     9 
20620 20618 20621 20624     9 
20618 20621 20624 20625     9 
20618 20621 20624 20626     9 
20618 20621 20624 20627     9 
20622 20621 20624 20625     9 
20622 20621 20624 20626     9 
20622 20621 20624 20627     9 
20623 20621 20624 20625     9 
20623 20621 20624 20626     9 
20623 20621 20624 20627     9 
20621 20624 20627 20628     9 
20621 20624 20627 20629     9 
20621 20624 20627 20630     9 
20625 20624 20627 20628     9 
20625 20624 20627 20629     9 
20625 20624 20627 20630     9 
20626 20624 20627 20628     9 
20626 20624 20627 20629     9 
20626 20624 20627 20630     9 
20624 20627 20630 20631     9 
20624 20627 20630 20632     9 
20624 20627 20630 20633     9 
20628 20627 20630 20631     9 
20628 20627 20630 20632     9 
20628 20627 20630 20633     9 
20629 20627 20630 20631     9 
20629 20627 20630 20632     9 
20629 20627 20630 20633     9 
20627 20630 20633 20634     9 
20627 20630 20633 20635     9 
20627 20630 20633 20636     9 
20631 20630 20633 20634     9 
20631 20630 20633 20635     9 
20631 20630 20633 20636     9 
20632 20630 20633 20634     9 
20632 20630 20633 20635     9 
20632 20630 20633 20636     9 
20641 20637 20638 20639     9 
20641 20637 20638 20640     9 
20641 20637 20638 20653     9 
20645 20637 20638 20639     9 
20645 20637 20638 20640     9 
20645 20637 20638 20653     9 
20649 20637 20638 20639     9 
20649 20637 20638 20640     9 
20649 20637 20638 20653     9 
20638 20637 20641 20642     9 
20638 20637 20641 20643     9 
20638 20637 20641 20644     9 
20645 20637 20641 20642     9 
20645 20637 20641 20643     9 
20645 20637 20641 20644     9 
20649 20637 20641 20642     9 
20649 20637 20641 20643     9 
20649 20637 20641 20644     9 
20638 20637 20645 20646     9 
20638 20637 20645 20647     9 
20638 20637 20645 20648     9 
20641 20637 20645 20646     9 
20641 20637 20645 20647     9 
20641 20637 20645 20648     9 
20649 20637 20645 20646     9 
20649 20637 20645 20647     9 
20649 20637 20645 20648     9 
20638 20637 20649 20650     9 
20638 20637 20649 20651     9 
20638 20637 20649 20652     9 
20641 20637 20649 20650     9 
20641 20637 20649 20651     9 
20641 20637 20649 20652     9 
20645 20637 20649 20650     9 
20645 20637 20649 20651     9 
20645 20637 20649 20652     9 
20637 20638 20653 20654     9 
20637 20638 20653 20655     9 
20637 20638 20653 20659     9 
20639 20638 20653 20654     9 
20639 20638 20653 20655     9 
20639 20638 20653 20659     9 
20640 20638 20653 20654     9 
20640 20638 20653 20655     9 
20640 20638 20653 20659     9 
20638 20653 20659 20656     9 
20654 20653 20659 20656     9 
20655 20653 20659 20656     9 
20657 20656 20659 20653     9 
20658 20656 20659 20653     9 
20660 20656 20659 20653     9 
20657 20656 20660 20661     9 
20658 20656 20660 20661     9 
20659 20656 20660 20661     9 
20656 20660 20661 20662     9 
20656 20660 20661 20663     9 
20656 20660 20661 20664     9 
20660 20661 20664 20665     9 
20660 20661 20664 20666     9 
20660 20661 20664 20672     9 
20662 20661 20664 20665     9 
20662 20661 20664 20666     9 
20662 20661 20664 20672     9 
20663 20661 20664 20665     9 
20663 20661 20664 20666     9 
20663 20661 20664 20672     9 
20661 20664 20666 20667     9 
20665 20664 20666 20667     9 
20672 20664 20666 20667     9 
20661 20664 20672 20673     9 
20661 20664 20672 20674     9 
20661 20664 20672 20675     9 
20665 20664 20672 20673     9 
20665 20664 20672 20674     9 
20665 20664 20672 20675     9 
20666 20664 20672 20673     9 
20666 20664 20672 20674     9 
20666 20664 20672 20675     9 
20664 20666 20667 20668     9 
20664 20666 20667 20669     9 
20666 20667 20669 20670     9 
20666 20667 20669 20671     9 
20666 20667 20669 20681     9 
20668 20667 20669 20670     9 
20668 20667 20669 20671     9 
20668 20667 20669 20681     9 
20667 20669 20681 20682     9 
20667 20669 20681 20683     9 
20667 20669 20681 20684     9 
20670 20669 20681 20682     9 
20670 20669 20681 20683     9 
20670 20669 20681 20684     9 
20671 20669 20681 20682     9 
20671 20669 20681 20683     9 
20671 20669 20681 20684     9 
20664 20672 20675 20676     9 
20673 20672 20675 20676     9 
20674 20672 20675 20676     9 
20672 20675 20676 20677     9 
20672 20675 20676 20678     9 
20675 20676 20678 20679     9 
20675 20676 20678 20680     9 
20675 20676 20678 20728     9 
20677 20676 20678 20679     9 
20677 20676 20678 20680     9 
20677 20676 20678 20728     9 
20676 20678 20728 20729     9 
20676 20678 20728 20730     9 
20676 20678 20728 20731     9 
20679 20678 20728 20729     9 
20679 20678 20728 20730     9 
20679 20678 20728 20731     9 
20680 20678 20728 20729     9 
20680 20678 20728 20730     9 
20680 20678 20728 20731     9 
20669 20681 20684 20685     9 
20669 20681 20684 20686     9 
20669 20681 20684 20687     9 
20682 20681 20684 20685     9 
20682 20681 20684 20686     9 
20682 20681 20684 20687     9 
20683 20681 20684 20685     9 
20683 20681 20684 20686     9 
20683 20681 20684 20687     9 
20681 20684 20687 20688     9 
20681 20684 20687 20689     9 
20681 20684 20687 20690     9 
20685 20684 20687 20688     9 
20685 20684 20687 20689     9 
20685 20684 20687 20690     9 
20686 20684 20687 20688     9 
20686 20684 20687 20689     9 
20686 20684 20687 20690     9 
20684 20687 20690 20691     9 
20684 20687 20690 20692     9 
20684 20687 20690 20693     9 
20688 20687 20690 20691     9 
20688 20687 20690 20692     9 
20688 20687 20690 20693     9 
20689 20687 20690 20691     9 
20689 20687 20690 20692     9 
20689 20687 20690 20693     9 
20687 20690 20693 20694     9 
20687 20690 20693 20695     9 
20687 20690 20693 20696     9 
20691 20690 20693 20694     9 
20691 20690 20693 20695     9 
20691 20690 20693 20696     9 
20692 20690 20693 20694     9 
20692 20690 20693 20695     9 
20692 20690 20693 20696     9 
20690 20693 20696 20697     9 
20690 20693 20696 20698     9 
20690 20693 20696 20699     9 
20694 20693 20696 20697     9 
20694 20693 20696 20698     9 
20694 20693 20696 20699     9 
20695 20693 20696 20697     9 
20695 20693 20696 20698     9 
20695 20693 20696 20699     9 
20693 20696 20699 20700     9 
20693 20696 20699 20701     9 
20697 20696 20699 20700     9 
20697 20696 20699 20701     9 
20698 20696 20699 20700     9 
20698 20696 20699 20701     9 
20696 20699 20701 20702     9 
20696 20699 20701 20703     9 
20700 20699 20701 20702     9 
20700 20699 20701 20703     9 
20699 20701 20703 20704     9 
20699 20701 20703 20705     9 
20699 20701 20703 20706     9 
20702 20701 20703 20704     9 
20702 20701 20703 20705     9 
20702 20701 20703 20706     9 
20701 20703 20706 20707     9 
20701 20703 20706 20708     9 
20701 20703 20706 20709     9 
20704 20703 20706 20707     9 
20704 20703 20706 20708     9 
20704 20703 20706 20709     9 
20705 20703 20706 20707     9 
20705 20703 20706 20708     9 
20705 20703 20706 20709     9 
20703 20706 20709 20710     9 
20703 20706 20709 20711     9 
20703 20706 20709 20712     9 
20707 20706 20709 20710     9 
20707 20706 20709 20711     9 
20707 20706 20709 20712     9 
20708 20706 20709 20710     9 
20708 20706 20709 20711     9 
20708 20706 20709 20712     9 
20706 20709 20712 20713     9 
20706 20709 20712 20714     9 
20706 20709 20712 20715     9 
20710 20709 20712 20713     9 
20710 20709 20712 20714     9 
20710 20709 20712 20715     9 
20711 20709 20712 20713     9 
20711 20709 20712 20714     9 
20711 20709 20712 20715     9 
20709 20712 20715 20716     9 
20709 20712 20715 20717     9 
20709 20712 20715 20718     9 
20713 20712 20715 20716     9 
20713 20712 20715 20717     9 
20713 20712 20715 20718     9 
20714 20712 20715 20716     9 
20714 20712 20715 20717     9 
20714 20712 20715 20718     9 
20712 20715 20718 20719     9 
20712 20715 20718 20720     9 
20712 20715 20718 20721     9 
20716 20715 20718 20719     9 
20716 20715 20718 20720     9 
20716 20715 20718 20721     9 
20717 20715 20718 20719     9 
20717 20715 20718 20720     9 
20717 20715 20718 20721     9 
20715 20718 20721 20722     9 
20715 20718 20721 20723     9 
20715 20718 20721 20724     9 
20719 20718 20721 20722     9 
20719 20718 20721 20723     9 
20719 20718 20721 20724     9 
20720 20718 20721 20722     9 
20720 20718 20721 20723     9 
20720 20718 20721 20724     9 
20718 20721 20724 20725     9 
20718 20721 20724 20726     9 
20718 20721 20724 20727     9 
20722 20721 20724 20725     9 
20722 20721 20724 20726     9 
20722 20721 20724 20727     9 
20723 20721 20724 20725     9 
20723 20721 20724 20726     9 
20723 20721 20724 20727     9 
20678 20728 20731 20732     9 
20678 20728 20731 20733     9 
20678 20728 20731 20734     9 
20729 20728 20731 20732     9 
20729 20728 20731 20733     9 
20729 20728 20731 20734     9 
20730 20728 20731 20732     9 
20730 20728 20731 20733     9 
20730 20728 20731 20734     9 
20728 20731 20734 20735     9 
20728 20731 20734 20736     9 
20728 20731 20734 20737     9 
20732 20731 20734 20735     9 
20732 20731 20734 20736     9 
20732 20731 20734 20737     9 
20733 20731 20734 20735     9 
20733 20731 20734 20736     9 
20733 20731 20734 20737     9 
20731 20734 20737 20738     9 
20731 20734 20737 20739     9 
20731 20734 20737 20740     9 
20735 20734 20737 20738     9 
20735 20734 20737 20739     9 
20735 20734 20737 20740     9 
20736 20734 20737 20738     9 
20736 20734 20737 20739     9 
20736 20734 20737 20740     9 
20734 20737 20740 20741     9 
20734 20737 20740 20742     9 
20734 20737 20740 20743     9 
20738 20737 20740 20741     9 
20738 20737 20740 20742     9 
20738 20737 20740 20743     9 
20739 20737 20740 20741     9 
20739 20737 20740 20742     9 
20739 20737 20740 20743     9 
20737 20740 20743 20744     9 
20737 20740 20743 20745     9 
20737 20740 20743 20746     9 
20741 20740 20743 20744     9 
20741 20740 20743 20745     9 
20741 20740 20743 20746     9 
20742 20740 20743 20744     9 
20742 20740 20743 20745     9 
20742 20740 20743 20746     9 
20740 20743 20746 20747     9 
20740 20743 20746 20748     9 
20740 20743 20746 20749     9 
20744 20743 20746 20747     9 
20744 20743 20746 20748     9 
20744 20743 20746 20749     9 
20745 20743 20746 20747     9 
20745 20743 20746 20748     9 
20745 20743 20746 20749     9 
20743 20746 20749 20750     9 
20743 20746 20749 20751     9 
20743 20746 20749 20752     9 
20747 20746 20749 20750     9 
20747 20746 20749 20751     9 
20747 20746 20749 20752     9 
20748 20746 20749 20750     9 
20748 20746 20749 20751     9 
20748 20746 20749 20752     9 
20746 20749 20752 20753     9 
20746 20749 20752 20754     9 
20746 20749 20752 20755     9 
20750 20749 20752 20753     9 
20750 20749 20752 20754     9 
20750 20749 20752 20755     9 
20751 20749 20752 20753     9 
20751 20749 20752 20754     9 
20751 20749 20752 20755     9 
20749 20752 20755 20756     9 
20749 20752 20755 20757     9 
20749 20752 20755 20758     9 
20753 20752 20755 20756     9 
20753 20752 20755 20757     9 
20753 20752 20755 20758     9 
20754 20752 20755 20756     9 
20754 20752 20755 20757     9 
20754 20752 20755 20758     9 
20752 20755 20758 20759     9 
20752 20755 20758 20760     9 
20752 20755 20758 20761     9 
20756 20755 20758 20759     9 
20756 20755 20758 20760     9 
20756 20755 20758 20761     9 
20757 20755 20758 20759     9 
20757 20755 20758 20760     9 
20757 20755 20758 20761     9 
20755 20758 20761 20762     9 
20755 20758 20761 20763     9 
20755 20758 20761 20764     9 
20759 20758 20761 20762     9 
20759 20758 20761 20763     9 
20759 20758 20761 20764     9 
20760 20758 20761 20762     9 
20760 20758 20761 20763     9 
20760 20758 20761 20764     9 
20758 20761 20764 20765     9 
20758 20761 20764 20766     9 
20758 20761 20764 20767     9 
20762 20761 20764 20765     9 
20762 20761 20764 20766     9 
20762 20761 20764 20767     9 
20763 20761 20764 20765     9 
20763 20761 20764 20766     9 
20763 20761 20764 20767     9 
20761 20764 20767 20768     9 
20761 20764 20767 20769     9 
20761 20764 20767 20770     9 
20765 20764 20767 20768     9 
20765 20764 20767 20769     9 
20765 20764 20767 20770     9 
20766 20764 20767 20768     9 
20766 20764 20767 20769     9 
20766 20764 20767 20770     9 
20775 20771 20772 20773     9 
20775 20771 20772 20774     9 
20775 20771 20772 20787     9 
20779 20771 20772 20773     9 
20779 20771 20772 20774     9 
20779 20771 20772 20787     9 
20783 20771 20772 20773     9 
20783 20771 20772 20774     9 
20783 20771 20772 20787     9 
20772 20771 20775 20776     9 
20772 20771 20775 20777     9 
20772 20771 20775 20778     9 
20779 20771 20775 20776     9 
20779 20771 20775 20777     9 
20779 20771 20775 20778     9 
20783 20771 20775 20776     9 
20783 20771 20775 20777     9 
20783 20771 20775 20778     9 
20772 20771 20779 20780     9 
20772 20771 20779 20781     9 
20772 20771 20779 20782     9 
20775 20771 20779 20780     9 
20775 20771 20779 20781     9 
20775 20771 20779 20782     9 
20783 20771 20779 20780     9 
20783 20771 20779 20781     9 
20783 20771 20779 20782     9 
20772 20771 20783 20784     9 
20772 20771 20783 20785     9 
20772 20771 20783 20786     9 
20775 20771 20783 20784     9 
20775 20771 20783 20785     9 
20775 20771 20783 20786     9 
20779 20771 20783 20784     9 
20779 20771 20783 20785     9 
20779 20771 20783 20786     9 
20771 20772 20787 20788     9 
20771 20772 20787 20789     9 
20771 20772 20787 20793     9 
20773 20772 20787 20788     9 
20773 20772 20787 20789     9 
20773 20772 20787 20793     9 
20774 20772 20787 20788     9 
20774 20772 20787 20789     9 
20774 20772 20787 20793     9 
20772 20787 20793 20790     9 
20788 20787 20793 20790     9 
20789 20787 20793 20790     9 
20791 20790 20793 20787     9 
20792 20790 20793 20787     9 
20794 20790 20793 20787     9 
20791 20790 20794 20795     9 
20792 20790 20794 20795     9 
20793 20790 20794 20795     9 
20790 20794 20795 20796     9 
20790 20794 20795 20797     9 
20790 20794 20795 20798     9 
20794 20795 20798 20799     9 
20794 20795 20798 20800     9 
20794 20795 20798 20806     9 
20796 20795 20798 20799     9 
20796 20795 20798 20800     9 
20796 20795 20798 20806     9 
20797 20795 20798 20799     9 
20797 20795 20798 20800     9 
20797 20795 20798 20806     9 
20795 20798 20800 20801     9 
20799 20798 20800 20801     9 
20806 20798 20800 20801     9 
20795 20798 20806 20807     9 
20795 20798 20806 20808     9 
20795 20798 20806 20809     9 
20799 20798 20806 20807     9 
20799 20798 20806 20808     9 
20799 20798 20806 20809     9 
20800 20798 20806 20807     9 
20800 20798 20806 20808     9 
20800 20798 20806 20809     9 
20798 20800 20801 20802     9 
20798 20800 20801 20803     9 
20800 20801 20803 20804     9 
20800 20801 20803 20805     9 
20800 20801 20803 20815     9 
20802 20801 20803 20804     9 
20802 20801 20803 20805     9 
20802 20801 20803 20815     9 
20801 20803 20815 20816     9 
20801 20803 20815 20817     9 
20801 20803 20815 20818     9 
20804 20803 20815 20816     9 
20804 20803 20815 20817     9 
20804 20803 20815 20818     9 
20805 20803 20815 20816     9 
20805 20803 20815 20817     9 
20805 20803 20815 20818     9 
20798 20806 20809 20810     9 
20807 20806 20809 20810     9 
20808 20806 20809 20810     9 
20806 20809 20810 20811     9 
20806 20809 20810 20812     9 
20809 20810 20812 20813     9 
20809 20810 20812 20814     9 
20809 20810 20812 20862     9 
20811 20810 20812 20813     9 
20811 20810 20812 20814     9 
20811 20810 20812 20862     9 
20810 20812 20862 20863     9 
20810 20812 20862 20864     9 
20810 20812 20862 20865     9 
20813 20812 20862 20863     9 
20813 20812 20862 20864     9 
20813 20812 20862 20865     9 
20814 20812 20862 20863     9 
20814 20812 20862 20864     9 
20814 20812 20862 20865     9 
20803 20815 20818 20819     9 
20803 20815 20818 20820     9 
20803 20815 20818 20821     9 
20816 20815 20818 20819     9 
20816 20815 20818 20820     9 
20816 20815 20818 20821     9 
20817 20815 20818 20819     9 
20817 20815 20818 20820     9 
20817 20815 20818 20821     9 
20815 20818 20821 20822     9 
20815 20818 20821 20823     9 
20815 20818 20821 20824     9 
20819 20818 20821 20822     9 
20819 20818 20821 20823     9 
20819 20818 20821 20824     9 
20820 20818 20821 20822     9 
20820 20818 20821 20823     9 
20820 20818 20821 20824     9 
20818 20821 20824 20825     9 
20818 20821 20824 20826     9 
20818 20821 20824 20827     9 
20822 20821 20824 20825     9 
20822 20821 20824 20826     9 
20822 20821 20824 20827     9 
20823 20821 20824 20825     9 
20823 20821 20824 20826     9 
20823 20821 20824 20827     9 
20821 20824 20827 20828     9 
20821 20824 20827 20829     9 
20821 20824 20827 20830     9 
20825 20824 20827 20828     9 
20825 20824 20827 20829     9 
20825 20824 20827 20830     9 
20826 20824 20827 20828     9 
20826 20824 20827 20829     9 
20826 20824 20827 20830     9 
20824 20827 20830 20831     9 
20824 20827 20830 20832     9 
20824 20827 20830 20833     9 
20828 20827 20830 20831     9 
20828 20827 20830 20832     9 
20828 20827 20830 20833     9 
20829 20827 20830 20831     9 
20829 20827 20830 20832     9 
20829 20827 20830 20833     9 
20827 20830 20833 20834     9 
20827 20830 20833 20835     9 
20831 20830 20833 20834     9 
20831 20830 20833 20835     9 
20832 20830 20833 20834     9 
20832 20830 20833 20835     9 
20830 20833 20835 20836     9 
20830 20833 20835 20837     9 
20834 20833 20835 20836     9 
20834 20833 20835 20837     9 
20833 20835 20837 20838     9 
20833 20835 20837 20839     9 
20833 20835 20837 20840     9 
20836 20835 20837 20838     9 
20836 20835 20837 20839     9 
20836 20835 20837 20840     9 
20835 20837 20840 20841     9 
20835 20837 20840 20842     9 
20835 20837 20840 20843     9 
20838 20837 20840 20841     9 
20838 20837 20840 20842     9 
20838 20837 20840 20843     9 
20839 20837 20840 20841     9 
20839 20837 20840 20842     9 
20839 20837 20840 20843     9 
20837 20840 20843 20844     9 
20837 20840 20843 20845     9 
20837 20840 20843 20846     9 
20841 20840 20843 20844     9 
20841 20840 20843 20845     9 
20841 20840 20843 20846     9 
20842 20840 20843 20844     9 
20842 20840 20843 20845     9 
20842 20840 20843 20846     9 
20840 20843 20846 20847     9 
20840 20843 20846 20848     9 
20840 20843 20846 20849     9 
20844 20843 20846 20847     9 
20844 20843 20846 20848     9 
20844 20843 20846 20849     9 
20845 20843 20846 20847     9 
20845 20843 20846 20848     9 
20845 20843 20846 20849     9 
20843 20846 20849 20850     9 
20843 20846 20849 20851     9 
20843 20846 20849 20852     9 
20847 20846 20849 20850     9 
20847 20846 20849 20851     9 
20847 20846 20849 20852     9 
20848 20846 20849 20850     9 
20848 20846 20849 20851     9 
20848 20846 20849 20852     9 
20846 20849 20852 20853     9 
20846 20849 20852 20854     9 
20846 20849 20852 20855     9 
20850 20849 20852 20853     9 
20850 20849 20852 20854     9 
20850 20849 20852 20855     9 
20851 20849 20852 20853     9 
20851 20849 20852 20854     9 
20851 20849 20852 20855     9 
20849 20852 20855 20856     9 
20849 20852 20855 20857     9 
20849 20852 20855 20858     9 
20853 20852 20855 20856     9 
20853 20852 20855 20857     9 
20853 20852 20855 20858     9 
20854 20852 20855 20856     9 
20854 20852 20855 20857     9 
20854 20852 20855 20858     9 
20852 20855 20858 20859     9 
20852 20855 20858 20860     9 
20852 20855 20858 20861     9 
20856 20855 20858 20859     9 
20856 20855 20858 20860     9 
20856 20855 20858 20861     9 
20857 20855 20858 20859     9 
20857 20855 20858 20860     9 
20857 20855 20858 20861     9 
20812 20862 20865 20866     9 
20812 20862 20865 20867     9 
20812 20862 20865 20868     9 
20863 20862 20865 20866     9 
20863 20862 20865 20867     9 
20863 20862 20865 20868     9 
20864 20862 20865 20866     9 
20864 20862 20865 20867     9 
20864 20862 20865 20868     9 
20862 20865 20868 20869     9 
20862 20865 20868 20870     9 
20862 20865 20868 20871     9 
20866 20865 20868 20869     9 
20866 20865 20868 20870     9 
20866 20865 20868 20871     9 
20867 20865 20868 20869     9 
20867 20865 20868 20870     9 
20867 20865 20868 20871     9 
20865 20868 20871 20872     9 
20865 20868 20871 20873     9 
20865 20868 20871 20874     9 
20869 20868 20871 20872     9 
20869 20868 20871 20873     9 
20869 20868 20871 20874     9 
20870 20868 20871 20872     9 
20870 20868 20871 20873     9 
20870 20868 20871 20874     9 
20868 20871 20874 20875     9 
20868 20871 20874 20876     9 
20868 20871 20874 20877     9 
20872 20871 20874 20875     9 
20872 20871 20874 20876     9 
20872 20871 20874 20877     9 
20873 20871 20874 20875     9 
20873 20871 20874 20876     9 
20873 20871 20874 20877     9 
20871 20874 20877 20878     9 
20871 20874 20877 20879     9 
20871 20874 20877 20880     9 
20875 20874 20877 20878     9 
20875 20874 20877 20879     9 
20875 20874 20877 20880     9 
20876 20874 20877 20878     9 
20876 20874 20877 20879     9 
20876 20874 20877 20880     9 
20874 20877 20880 20881     9 
20874 20877 20880 20882     9 
20874 20877 20880 20883     9 
20878 20877 20880 20881     9 
20878 20877 20880 20882     9 
20878 20877 20880 20883     9 
20879 20877 20880 20881     9 
20879 20877 20880 20882     9 
20879 20877 20880 20883     9 
20877 20880 20883 20884     9 
20877 20880 20883 20885     9 
20877 20880 20883 20886     9 
20881 20880 20883 20884     9 
20881 20880 20883 20885     9 
20881 20880 20883 20886     9 
20882 20880 20883 20884     9 
20882 20880 20883 20885     9 
20882 20880 20883 20886     9 
20880 20883 20886 20887     9 
20880 20883 20886 20888     9 
20880 20883 20886 20889     9 
20884 20883 20886 20887     9 
20884 20883 20886 20888     9 
20884 20883 20886 20889     9 
20885 20883 20886 20887     9 
20885 20883 20886 20888     9 
20885 20883 20886 20889     9 
20883 20886 20889 20890     9 
20883 20886 20889 20891     9 
20883 20886 20889 20892     9 
20887 20886 20889 20890     9 
20887 20886 20889 20891     9 
20887 20886 20889 20892     9 
20888 20886 20889 20890     9 
20888 20886 20889 20891     9 
20888 20886 20889 20892     9 
20886 20889 20892 20893     9 
20886 20889 20892 20894     9 
20886 20889 20892 20895     9 
20890 20889 20892 20893     9 
20890 20889 20892 20894     9 
20890 20889 20892 20895     9 
20891 20889 20892 20893     9 
20891 20889 20892 20894     9 
20891 20889 20892 20895     9 
20889 20892 20895 20896     9 
20889 20892 20895 20897     9 
20889 20892 20895 20898     9 
20893 20892 20895 20896     9 
20893 20892 20895 20897     9 
20893 20892 20895 20898     9 
20894 20892 20895 20896     9 
20894 20892 20895 20897     9 
20894 20892 20895 20898     9 
20892 20895 20898 20899     9 
20892 20895 20898 20900     9 
20892 20895 20898 20901     9 
20896 20895 20898 20899     9 
20896 20895 20898 20900     9 
20896 20895 20898 20901     9 
20897 20895 20898 20899     9 
20897 20895 20898 20900     9 
20897 20895 20898 20901     9 
20895 20898 20901 20902     9 
20895 20898 20901 20903     9 
20895 20898 20901 20904     9 
20899 20898 20901 20902     9 
20899 20898 20901 20903     9 
20899 20898 20901 20904     9 
20900 20898 20901 20902     9 
20900 20898 20901 20903     9 
20900 20898 20901 20904     9 
20909 20905 20906 20907     9 
20909 20905 20906 20908     9 
20909 20905 20906 20921     9 
20913 20905 20906 20907     9 
20913 20905 20906 20908     9 
20913 20905 20906 20921     9 
20917 20905 20906 20907     9 
20917 20905 20906 20908     9 
20917 20905 20906 20921     9 
20906 20905 20909 20910     9 
20906 20905 20909 20911     9 
20906 20905 20909 20912     9 
20913 20905 20909 20910     9 
20913 20905 20909 20911     9 
20913 20905 20909 20912     9 
20917 20905 20909 20910     9 
20917 20905 20909 20911     9 
20917 20905 20909 20912     9 
20906 20905 20913 20914     9 
20906 20905 20913 20915     9 
20906 20905 20913 20916     9 
20909 20905 20913 20914     9 
20909 20905 20913 20915     9 
20909 20905 20913 20916     9 
20917 20905 20913 20914     9 
20917 20905 20913 20915     9 
20917 20905 20913 20916     9 
20906 20905 20917 20918     9 
20906 20905 20917 20919     9 
20906 20905 20917 20920     9 
20909 20905 20917 20918     9 
20909 20905 20917 20919     9 
20909 20905 20917 20920     9 
20913 20905 20917 20918     9 
20913 20905 20917 20919     9 
20913 20905 20917 20920     9 
20905 20906 20921 20922     9 
20905 20906 20921 20923     9 
20905 20906 20921 20927     9 
20907 20906 20921 20922     9 
20907 20906 20921 20923     9 
20907 20906 20921 20927     9 
20908 20906 20921 20922     9 
20908 20906 20921 20923     9 
20908 20906 20921 20927     9 
20906 20921 20927 20924     9 
20922 20921 20927 20924     9 
20923 20921 20927 20924     9 
20925 20924 20927 20921     9 
20926 20924 20927 20921     9 
20928 20924 20927 20921     9 
20925 20924 20928 20929     9 
20926 20924 20928 20929     9 
20927 20924 20928 20929     9 
20924 20928 20929 20930     9 
20924 20928 20929 20931     9 
20924 20928 20929 20932     9 
20928 20929 20932 20933     9 
20928 20929 20932 20934     9 
20928 20929 20932 20940     9 
20930 20929 20932 20933     9 
20930 20929 20932 20934     9 
20930 20929 20932 20940     9 
20931 20929 20932 20933     9 
20931 20929 20932 20934     9 
20931 20929 20932 20940     9 
20929 20932 20934 20935     9 
20933 20932 20934 20935     9 
20940 20932 20934 20935     9 
20929 20932 20940 20941     9 
20929 20932 20940 20942     9 
20929 20932 20940 20943     9 
20933 20932 20940 20941     9 
20933 20932 20940 20942     9 
20933 20932 20940 20943     9 
20934 20932 20940 20941     9 
20934 20932 20940 20942     9 
20934 20932 20940 20943     9 
20932 20934 20935 20936     9 
20932 20934 20935 20937     9 
20934 20935 20937 20938     9 
20934 20935 20937 20939     9 
20934 20935 20937 20949     9 
20936 20935 20937 20938     9 
20936 20935 20937 20939     9 
20936 20935 20937 20949     9 
20935 20937 20949 20950     9 
20935 20937 20949 20951     9 
20935 20937 20949 20952     9 
20938 20937 20949 20950     9 
20938 20937 20949 20951     9 
20938 20937 20949 20952     9 
20939 20937 20949 20950     9 
20939 20937 20949 20951     9 
20939 20937 20949 20952     9 
20932 20940 20943 20944     9 
20941 20940 20943 20944     9 
20942 20940 20943 20944     9 
20940 20943 20944 20945     9 
20940 20943 20944 20946     9 
20943 20944 20946 20947     9 
20943 20944 20946 20948     9 
20943 20944 20946 20996     9 
20945 20944 20946 20947     9 
20945 20944 20946 20948     9 
20945 20944 20946 20996     9 
20944 20946 20996 20997     9 
20944 20946 20996 20998     9 
20944 20946 20996 20999     9 
20947 20946 20996 20997     9 
20947 20946 20996 20998     9 
20947 20946 20996 20999     9 
20948 20946 20996 20997     9 
20948 20946 20996 20998     9 
20948 20946 20996 20999     9 
20937 20949 20952 20953     9 
20937 20949 20952 20954     9 
20937 20949 20952 20955     9 
20950 20949 20952 20953     9 
20950 20949 20952 20954     9 
20950 20949 20952 20955     9 
20951 20949 20952 20953     9 
20951 20949 20952 20954     9 
20951 20949 20952 20955     9 
20949 20952 20955 20956     9 
20949 20952 20955 20957     9 
20949 20952 20955 20958     9 
20953 20952 20955 20956     9 
20953 20952 20955 20957     9 
20953 20952 20955 20958     9 
20954 20952 20955 20956     9 
20954 20952 20955 20957     9 
20954 20952 20955 20958     9 
20952 20955 20958 20959     9 
20952 20955 20958 20960     9 
20952 20955 20958 20961     9 
20956 20955 20958 20959     9 
20956 20955 20958 20960     9 
20956 20955 20958 20961     9 
20957 20955 20958 20959     9 
20957 20955 20958 20960     9 
20957 20955 20958 20961     9 
20955 20958 20961 20962     9 
20955 20958 20961 20963     9 
20955 20958 20961 20964     9 
20959 20958 20961 20962     9 
20959 20958 20961 20963     9 
20959 20958 20961 20964     9 
20960 20958 20961 20962     9 
20960 20958 20961 20963     9 
20960 20958 20961 20964     9 
20958 20961 20964 20965     9 
20958 20961 20964 20966     9 
20958 20961 20964 20967     9 
20962 20961 20964 20965     9 
20962 20961 20964 20966     9 
20962 20961 20964 20967     9 
20963 20961 20964 20965     9 
20963 20961 20964 20966     9 
20963 20961 20964 20967     9 
20961 20964 20967 20968     9 
20961 20964 20967 20969     9 
20965 20964 20967 20968     9 
20965 20964 20967 20969     9 
20966 20964 20967 20968     9 
20966 20964 20967 20969     9 
20964 20967 20969 20970     9 
20964 20967 20969 20971     9 
20968 20967 20969 20970     9 
20968 20967 20969 20971     9 
20967 20969 20971 20972     9 
20967 20969 20971 20973     9 
20967 20969 20971 20974     9 
20970 20969 20971 20972     9 
20970 20969 20971 20973     9 
20970 20969 20971 20974     9 
20969 20971 20974 20975     9 
20969 20971 20974 20976     9 
20969 20971 20974 20977     9 
20972 20971 20974 20975     9 
20972 20971 20974 20976     9 
20972 20971 20974 20977     9 
20973 20971 20974 20975     9 
20973 20971 20974 20976     9 
20973 20971 20974 20977     9 
20971 20974 20977 20978     9 
20971 20974 20977 20979     9 
20971 20974 20977 20980     9 
20975 20974 20977 20978     9 
20975 20974 20977 20979     9 
20975 20974 20977 20980     9 
20976 20974 20977 20978     9 
20976 20974 20977 20979     9 
20976 20974 20977 20980     9 
20974 20977 20980 20981     9 
20974 20977 20980 20982     9 
20974 20977 20980 20983     9 
20978 20977 20980 20981     9 
20978 20977 20980 20982     9 
20978 20977 20980 20983     9 
20979 20977 20980 20981     9 
20979 20977 20980 20982     9 
20979 20977 20980 20983     9 
20977 20980 20983 20984     9 
20977 20980 20983 20985     9 
20977 20980 20983 20986     9 
20981 20980 20983 20984     9 
20981 20980 20983 20985     9 
20981 20980 20983 20986     9 
20982 20980 20983 20984     9 
20982 20980 20983 20985     9 
20982 20980 20983 20986     9 
20980 20983 20986 20987     9 
20980 20983 20986 20988     9 
20980 20983 20986 20989     9 
20984 20983 20986 20987     9 
20984 20983 20986 20988     9 
20984 20983 20986 20989     9 
20985 20983 20986 20987     9 
20985 20983 20986 20988     9 
20985 20983 20986 20989     9 
20983 20986 20989 20990     9 
20983 20986 20989 20991     9 
20983 20986 20989 20992     9 
20987 20986 20989 20990     9 
20987 20986 20989 20991     9 
20987 20986 20989 20992     9 
20988 20986 20989 20990     9 
20988 20986 20989 20991     9 
20988 20986 20989 20992     9 
20986 20989 20992 20993     9 
20986 20989 20992 20994     9 
20986 20989 20992 20995     9 
20990 20989 20992 20993     9 
20990 20989 20992 20994     9 
20990 20989 20992 20995     9 
20991 20989 20992 20993     9 
20991 20989 20992 20994     9 
20991 20989 20992 20995     9 
20946 20996 20999 21000     9 
20946 20996 20999 21001     9 
20946 20996 20999 21002     9 
20997 20996 20999 21000     9 
20997 20996 20999 21001     9 
20997 20996 20999 21002     9 
20998 20996 20999 21000     9 
20998 20996 20999 21001     9 
20998 20996 20999 21002     9 
20996 20999 21002 21003     9 
20996 20999 21002 21004     9 
20996 20999 21002 21005     9 
21000 20999 21002 21003     9 
21000 20999 21002 21004     9 
21000 20999 21002 21005     9 
21001 20999 21002 21003     9 
21001 20999 21002 21004     9 
21001 20999 21002 21005     9 
20999 21002 21005 21006     9 
20999 21002 21005 21007     9 
20999 21002 21005 21008     9 
21003 21002 21005 21006     9 
21003 21002 21005 21007     9 
21003 21002 21005 21008     9 
21004 21002 21005 21006     9 
21004 21002 21005 21007     9 
21004 21002 21005 21008     9 
21002 21005 21008 21009     9 
21002 21005 21008 21010     9 
21002 21005 21008 21011     9 
21006 21005 21008 21009     9 
21006 21005 21008 21010     9 
21006 21005 21008 21011     9 
21007 21005 21008 21009     9 
21007 21005 21008 21010     9 
21007 21005 21008 21011     9 
21005 21008 21011 21012     9 
21005 21008 21011 21013     9 
21005 21008 21011 21014     9 
21009 21008 21011 21012     9 
21009 21008 21011 21013     9 
21009 21008 21011 21014     9 
21010 21008 21011 21012     9 
21010 21008 21011 21013     9 
21010 21008 21011 21014     9 
21008 21011 21014 21015     9 
21008 21011 21014 21016     9 
21008 21011 21014 21017     9 
21012 21011 21014 21015     9 
21012 21011 21014 21016     9 
21012 21011 21014 21017     9 
21013 21011 21014 21015     9 
21013 21011 21014 21016     9 
21013 21011 21014 21017     9 
21011 21014 21017 21018     9 
21011 21014 21017 21019     9 
21011 21014 21017 21020     9 
21015 21014 21017 21018     9 
21015 21014 21017 21019     9 
21015 21014 21017 21020     9 
21016 21014 21017 21018     9 
21016 21014 21017 21019     9 
21016 21014 21017 21020     9 
21014 21017 21020 21021     9 
21014 21017 21020 21022     9 
21014 21017 21020 21023     9 
21018 21017 21020 21021     9 
21018 21017 21020 21022     9 
21018 21017 21020 21023     9 
21019 21017 21020 21021     9 
21019 21017 21020 21022     9 
21019 21017 21020 21023     9 
21017 21020 21023 21024     9 
21017 21020 21023 21025     9 
21017 21020 21023 21026     9 
21021 21020 21023 21024     9 
21021 21020 21023 21025     9 
21021 21020 21023 21026     9 
21022 21020 21023 21024     9 
21022 21020 21023 21025     9 
21022 21020 21023 21026     9 
21020 21023 21026 21027     9 
21020 21023 21026 21028     9 
21020 21023 21026 21029     9 
21024 21023 21026 21027     9 
21024 21023 21026 21028     9 
21024 21023 21026 21029     9 
21025 21023 21026 21027     9 
21025 21023 21026 21028     9 
21025 21023 21026 21029     9 
21023 21026 21029 21030     9 
21023 21026 21029 21031     9 
21023 21026 21029 21032     9 
21027 21026 21029 21030     9 
21027 21026 21029 21031     9 
21027 21026 21029 21032     9 
21028 21026 21029 21030     9 
21028 21026 21029 21031     9 
21028 21026 21029 21032     9 
21026 21029 21032 21033     9 
21026 21029 21032 21034     9 
21026 21029 21032 21035     9 
21030 21029 21032 21033     9 
21030 21029 21032 21034     9 
21030 21029 21032 21035     9 
21031 21029 21032 21033     9 
21031 21029 21032 21034     9 
21031 21029 21032 21035     9 
21029 21032 21035 21036     9 
21029 21032 21035 21037     9 
21029 21032 21035 21038     9 
21033 21032 21035 21036     9 
21033 21032 21035 21037     9 
21033 21032 21035 21038     9 
21034 21032 21035 21036     9 
21034 21032 21035 21037     9 
21034 21032 21035 21038     9 
21043 21039 21040 21041     9 
21043 21039 21040 21042     9 
21043 21039 21040 21055     9 
21047 21039 21040 21041     9 
21047 21039 21040 21042     9 
21047 21039 21040 21055     9 
21051 21039 21040 21041     9 
21051 21039 21040 21042     9 
21051 21039 21040 21055     9 
21040 21039 21043 21044     9 
21040 21039 21043 21045     9 
21040 21039 21043 21046     9 
21047 21039 21043 21044     9 
21047 21039 21043 21045     9 
21047 21039 21043 21046     9 
21051 21039 21043 21044     9 
21051 21039 21043 21045     9 
21051 21039 21043 21046     9 
21040 21039 21047 21048     9 
21040 21039 21047 21049     9 
21040 21039 21047 21050     9 
21043 21039 21047 21048     9 
21043 21039 21047 21049     9 
21043 21039 21047 21050     9 
21051 21039 21047 21048     9 
21051 21039 21047 21049     9 
21051 21039 21047 21050     9 
21040 21039 21051 21052     9 
21040 21039 21051 21053     9 
21040 21039 21051 21054     9 
21043 21039 21051 21052     9 
21043 21039 21051 21053     9 
21043 21039 21051 21054     9 
21047 21039 21051 21052     9 
21047 21039 21051 21053     9 
21047 21039 21051 21054     9 
21039 21040 21055 21056     9 
21039 21040 21055 21057     9 
21039 21040 21055 21061     9 
21041 21040 21055 21056     9 
21041 21040 21055 21057     9 
21041 21040 21055 21061     9 
21042 21040 21055 21056     9 
21042 21040 21055 21057     9 
21042 21040 21055 21061     9 
21040 21055 21061 21058     9 
21056 21055 21061 21058     9 
21057 21055 21061 21058     9 
21059 21058 21061 21055     9 
21060 21058 21061 21055     9 
21062 21058 21061 21055     9 
21059 21058 21062 21063     9 
21060 21058 21062 21063     9 
21061 21058 21062 21063     9 
21058 21062 21063 21064     9 
21058 21062 21063 21065     9 
21058 21062 21063 21066     9 
21062 21063 21066 21067     9 
21062 21063 21066 21068     9 
21062 21063 21066 21074     9 
21064 21063 21066 21067     9 
21064 21063 21066 21068     9 
21064 21063 21066 21074     9 
21065 21063 21066 21067     9 
21065 21063 21066 21068     9 
21065 21063 21066 21074     9 
21063 21066 21068 21069     9 
21067 21066 21068 21069     9 
21074 21066 21068 21069     9 
21063 21066 21074 21075     9 
21063 21066 21074 21076     9 
21063 21066 21074 21077     9 
21067 21066 21074 21075     9 
21067 21066 21074 21076     9 
21067 21066 21074 21077     9 
21068 21066 21074 21075     9 
21068 21066 21074 21076     9 
21068 21066 21074 21077     9 
21066 21068 21069 21070     9 
21066 21068 21069 21071     9 
21068 21069 21071 21072     9 
21068 21069 21071 21073     9 
21068 21069 21071 21083     9 
21070 21069 21071 21072     9 
21070 21069 21071 21073     9 
21070 21069 21071 21083     9 
21069 21071 21083 21084     9 
21069 21071 21083 21085     9 
21069 21071 21083 21086     9 
21072 21071 21083 21084     9 
21072 21071 21083 21085     9 
21072 21071 21083 21086     9 
21073 21071 21083 21084     9 
21073 21071 21083 21085     9 
21073 21071 21083 21086     9 
21066 21074 21077 21078     9 
21075 21074 21077 21078     9 
21076 21074 21077 21078     9 
21074 21077 21078 21079     9 
21074 21077 21078 21080     9 
21077 21078 21080 21081     9 
21077 21078 21080 21082     9 
21077 21078 21080 21130     9 
21079 21078 21080 21081     9 
21079 21078 21080 21082     9 
21079 21078 21080 21130     9 
21078 21080 21130 21131     9 
21078 21080 21130 21132     9 
21078 21080 21130 21133     9 
21081 21080 21130 21131     9 
21081 21080 21130 21132     9 
21081 21080 21130 21133     9 
21082 21080 21130 21131     9 
21082 21080 21130 21132     9 
21082 21080 21130 21133     9 
21071 21083 21086 21087     9 
21071 21083 21086 21088     9 
21071 21083 21086 21089     9 
21084 21083 21086 21087     9 
21084 21083 21086 21088     9 
21084 21083 21086 21089     9 
21085 21083 21086 21087     9 
21085 21083 21086 21088     9 
21085 21083 21086 21089     9 
21083 21086 21089 21090     9 
21083 21086 21089 21091     9 
21083 21086 21089 21092     9 
21087 21086 21089 21090     9 
21087 21086 21089 21091     9 
21087 21086 21089 21092     9 
21088 21086 21089 21090     9 
21088 21086 21089 21091     9 
21088 21086 21089 21092     9 
21086 21089 21092 21093     9 
21086 21089 21092 21094     9 
21086 21089 21092 21095     9 
21090 21089 21092 21093     9 
21090 21089 21092 21094     9 
21090 21089 21092 21095     9 
21091 21089 21092 21093     9 
21091 21089 21092 21094     9 
21091 21089 21092 21095     9 
21089 21092 21095 21096     9 
21089 21092 21095 21097     9 
21089 21092 21095 21098     9 
21093 21092 21095 21096     9 
21093 21092 21095 21097     9 
21093 21092 21095 21098     9 
21094 21092 21095 21096     9 
21094 21092 21095 21097     9 
21094 21092 21095 21098     9 
21092 21095 21098 21099     9 
21092 21095 21098 21100     9 
21092 21095 21098 21101     9 
21096 21095 21098 21099     9 
21096 21095 21098 21100     9 
21096 21095 21098 21101     9 
21097 21095 21098 21099     9 
21097 21095 21098 21100     9 
21097 21095 21098 21101     9 
21095 21098 21101 21102     9 
21095 21098 21101 21103     9 
21099 21098 21101 21102     9 
21099 21098 21101 21103     9 
21100 21098 21101 21102     9 
21100 21098 21101 21103     9 
21098 21101 21103 21104     9 
21098 21101 21103 21105     9 
21102 21101 21103 21104     9 
21102 21101 21103 21105     9 
21101 21103 21105 21106     9 
21101 21103 21105 21107     9 
21101 21103 21105 21108     9 
21104 21103 21105 21106     9 
21104 21103 21105 21107     9 
21104 21103 21105 21108     9 
21103 21105 21108 21109     9 
21103 21105 21108 21110     9 
21103 21105 21108 21111     9 
21106 21105 21108 21109     9 
21106 21105 21108 21110     9 
21106 21105 21108 21111     9 
21107 21105 21108 21109     9 
21107 21105 21108 21110     9 
21107 21105 21108 21111     9 
21105 21108 21111 21112     9 
21105 21108 21111 21113     9 
21105 21108 21111 21114     9 
21109 21108 21111 21112     9 
21109 21108 21111 21113     9 
21109 21108 21111 21114     9 
21110 21108 21111 21112     9 
21110 21108 21111 21113     9 
21110 21108 21111 21114     9 
21108 21111 21114 21115     9 
21108 21111 21114 21116     9 
21108 21111 21114 21117     9 
21112 21111 21114 21115     9 
21112 21111 21114 21116     9 
21112 21111 21114 21117     9 
21113 21111 21114 21115     9 
21113 21111 21114 21116     9 
21113 21111 21114 21117     9 
21111 21114 21117 21118     9 
21111 21114 21117 21119     9 
21111 21114 21117 21120     9 
21115 21114 21117 21118     9 
21115 21114 21117 21119     9 
21115 21114 21117 21120     9 
21116 21114 21117 21118     9 
21116 21114 21117 21119     9 
21116 21114 21117 21120     9 
21114 21117 21120 21121     9 
21114 21117 21120 21122     9 
21114 21117 21120 21123     9 
21118 21117 21120 21121     9 
21118 21117 21120 21122     9 
21118 21117 21120 21123     9 
21119 21117 21120 21121     9 
21119 21117 21120 21122     9 
21119 21117 21120 21123     9 
21117 21120 21123 21124     9 
21117 21120 21123 21125     9 
21117 21120 21123 21126     9 
21121 21120 21123 21124     9 
21121 21120 21123 21125     9 
21121 21120 21123 21126     9 
21122 21120 21123 21124     9 
21122 21120 21123 21125     9 
21122 21120 21123 21126     9 
21120 21123 21126 21127     9 
21120 21123 21126 21128     9 
21120 21123 21126 21129     9 
21124 21123 21126 21127     9 
21124 21123 21126 21128     9 
21124 21123 21126 21129     9 
21125 21123 21126 21127     9 
21125 21123 21126 21128     9 
21125 21123 21126 21129     9 
21080 21130 21133 21134     9 
21080 21130 21133 21135     9 
21080 21130 21133 21136     9 
21131 21130 21133 21134     9 
21131 21130 21133 21135     9 
21131 21130 21133 21136     9 
21132 21130 21133 21134     9 
21132 21130 21133 21135     9 
21132 21130 21133 21136     9 
21130 21133 21136 21137     9 
21130 21133 21136 21138     9 
21130 21133 21136 21139     9 
21134 21133 21136 21137     9 
21134 21133 21136 21138     9 
21134 21133 21136 21139     9 
21135 21133 21136 21137     9 
21135 21133 21136 21138     9 
21135 21133 21136 21139     9 
21133 21136 21139 21140     9 
21133 21136 21139 21141     9 
21133 21136 21139 21142     9 
21137 21136 21139 21140     9 
21137 21136 21139 21141     9 
21137 21136 21139 21142     9 
21138 21136 21139 21140     9 
21138 21136 21139 21141     9 
21138 21136 21139 21142     9 
21136 21139 21142 21143     9 
21136 21139 21142 21144     9 
21136 21139 21142 21145     9 
21140 21139 21142 21143     9 
21140 21139 21142 21144     9 
21140 21139 21142 21145     9 
21141 21139 21142 21143     9 
21141 21139 21142 21144     9 
21141 21139 21142 21145     9 
21139 21142 21145 21146     9 
21139 21142 21145 21147     9 
21139 21142 21145 21148     9 
21143 21142 21145 21146     9 
21143 21142 21145 21147     9 
21143 21142 21145 21148     9 
21144 21142 21145 21146     9 
21144 21142 21145 21147     9 
21144 21142 21145 21148     9 
21142 21145 21148 21149     9 
21142 21145 21148 21150     9 
21142 21145 21148 21151     9 
21146 21145 21148 21149     9 
21146 21145 21148 21150     9 
21146 21145 21148 21151     9 
21147 21145 21148 21149     9 
21147 21145 21148 21150     9 
21147 21145 21148 21151     9 
21145 21148 21151 21152     9 
21145 21148 21151 21153     9 
21145 21148 21151 21154     9 
21149 21148 21151 21152     9 
21149 21148 21151 21153     9 
21149 21148 21151 21154     9 
21150 21148 21151 21152     9 
21150 21148 21151 21153     9 
21150 21148 21151 21154     9 
21148 21151 21154 21155     9 
21148 21151 21154 21156     9 
21148 21151 21154 21157     9 
21152 21151 21154 21155     9 
21152 21151 21154 21156     9 
21152 21151 21154 21157     9 
21153 21151 21154 21155     9 
21153 21151 21154 21156     9 
21153 21151 21154 21157     9 
21151 21154 21157 21158     9 
21151 21154 21157 21159     9 
21151 21154 21157 21160     9 
21155 21154 21157 21158     9 
21155 21154 21157 21159     9 
21155 21154 21157 21160     9 
21156 21154 21157 21158     9 
21156 21154 21157 21159     9 
21156 21154 21157 21160     9 
21154 21157 21160 21161     9 
21154 21157 21160 21162     9 
21154 21157 21160 21163     9 
21158 21157 21160 21161     9 
21158 21157 21160 21162     9 
21158 21157 21160 21163     9 
21159 21157 21160 21161     9 
21159 21157 21160 21162     9 
21159 21157 21160 21163     9 
21157 21160 21163 21164     9 
21157 21160 21163 21165     9 
21157 21160 21163 21166     9 
21161 21160 21163 21164     9 
21161 21160 21163 21165     9 
21161 21160 21163 21166     9 
21162 21160 21163 21164     9 
21162 21160 21163 21165     9 
21162 21160 21163 21166     9 
21160 21163 21166 21167     9 
21160 21163 21166 21168     9 
21160 21163 21166 21169     9 
21164 21163 21166 21167     9 
21164 21163 21166 21168     9 
21164 21163 21166 21169     9 
21165 21163 21166 21167     9 
21165 21163 21166 21168     9 
21165 21163 21166 21169     9 
21163 21166 21169 21170     9 
21163 21166 21169 21171     9 
21163 21166 21169 21172     9 
21167 21166 21169 21170     9 
21167 21166 21169 21171     9 
21167 21166 21169 21172     9 
21168 21166 21169 21170     9 
21168 21166 21169 21171     9 
21168 21166 21169 21172     9 
21177 21173 21174 21175     9 
21177 21173 21174 21176     9 
21177 21173 21174 21189     9 
21181 21173 21174 21175     9 
21181 21173 21174 21176     9 
21181 21173 21174 21189     9 
21185 21173 21174 21175     9 
21185 21173 21174 21176     9 
21185 21173 21174 21189     9 
21174 21173 21177 21178     9 
21174 21173 21177 21179     9 
21174 21173 21177 21180     9 
21181 21173 21177 21178     9 
21181 21173 21177 21179     9 
21181 21173 21177 21180     9 
21185 21173 21177 21178     9 
21185 21173 21177 21179     9 
21185 21173 21177 21180     9 
21174 21173 21181 21182     9 
21174 21173 21181 21183     9 
21174 21173 21181 21184     9 
21177 21173 21181 21182     9 
21177 21173 21181 21183     9 
21177 21173 21181 21184     9 
21185 21173 21181 21182     9 
21185 21173 21181 21183     9 
21185 21173 21181 21184     9 
21174 21173 21185 21186     9 
21174 21173 21185 21187     9 
21174 21173 21185 21188     9 
21177 21173 21185 21186     9 
21177 21173 21185 21187     9 
21177 21173 21185 21188     9 
21181 21173 21185 21186     9 
21181 21173 21185 21187     9 
21181 21173 21185 21188     9 
21173 21174 21189 21190     9 
21173 21174 21189 21191     9 
21173 21174 21189 21195     9 
21175 21174 21189 21190     9 
21175 21174 21189 21191     9 
21175 21174 21189 21195     9 
21176 21174 21189 21190     9 
21176 21174 21189 21191     9 
21176 21174 21189 21195     9 
21174 21189 21195 21192     9 
21190 21189 21195 21192     9 
21191 21189 21195 21192     9 
21193 21192 21195 21189     9 
21194 21192 21195 21189     9 
21196 21192 21195 21189     9 
21193 21192 21196 21197     9 
21194 21192 21196 21197     9 
21195 21192 21196 21197     9 
21192 21196 21197 21198     9 
21192 21196 21197 21199     9 
21192 21196 21197 21200     9 
21196 21197 21200 21201     9 
21196 21197 21200 21202     9 
21196 21197 21200 21208     9 
21198 21197 21200 21201     9 
21198 21197 21200 21202     9 
21198 21197 21200 21208     9 
21199 21197 21200 21201     9 
21199 21197 21200 21202     9 
21199 21197 21200 21208     9 
21197 21200 21202 21203     9 
21201 21200 21202 21203     9 
21208 21200 21202 21203     9 
21197 21200 21208 21209     9 
21197 21200 21208 21210     9 
21197 21200 21208 21211     9 
21201 21200 21208 21209     9 
21201 21200 21208 21210     9 
21201 21200 21208 21211     9 
21202 21200 21208 21209     9 
21202 21200 21208 21210     9 
21202 21200 21208 21211     9 
21200 21202 21203 21204     9 
21200 21202 21203 21205     9 
21202 21203 21205 21206     9 
21202 21203 21205 21207     9 
21202 21203 21205 21217     9 
21204 21203 21205 21206     9 
21204 21203 21205 21207     9 
21204 21203 21205 21217     9 
21203 21205 21217 21218     9 
21203 21205 21217 21219     9 
21203 21205 21217 21220     9 
21206 21205 21217 21218     9 
21206 21205 21217 21219     9 
21206 21205 21217 21220     9 
21207 21205 21217 21218     9 
21207 21205 21217 21219     9 
21207 21205 21217 21220     9 
21200 21208 21211 21212     9 
21209 21208 21211 21212     9 
21210 21208 21211 21212     9 
21208 21211 21212 21213     9 
21208 21211 21212 21214     9 
21211 21212 21214 21215     9 
21211 21212 21214 21216     9 
21211 21212 21214 21264     9 
21213 21212 21214 21215     9 
21213 21212 21214 21216     9 
21213 21212 21214 21264     9 
21212 21214 21264 21265     9 
21212 21214 21264 21266     9 
21212 21214 21264 21267     9 
21215 21214 21264 21265     9 
21215 21214 21264 21266     9 
21215 21214 21264 21267     9 
21216 21214 21264 21265     9 
21216 21214 21264 21266     9 
21216 21214 21264 21267     9 
21205 21217 21220 21221     9 
21205 21217 21220 21222     9 
21205 21217 21220 21223     9 
21218 21217 21220 21221     9 
21218 21217 21220 21222     9 
21218 21217 21220 21223     9 
21219 21217 21220 21221     9 
21219 21217 21220 21222     9 
21219 21217 21220 21223     9 
21217 21220 21223 21224     9 
21217 21220 21223 21225     9 
21217 21220 21223 21226     9 
21221 21220 21223 21224     9 
21221 21220 21223 21225     9 
21221 21220 21223 21226     9 
21222 21220 21223 21224     9 
21222 21220 21223 21225     9 
21222 21220 21223 21226     9 
21220 21223 21226 21227     9 
21220 21223 21226 21228     9 
21220 21223 21226 21229     9 
21224 21223 21226 21227     9 
21224 21223 21226 21228     9 
21224 21223 21226 21229     9 
21225 21223 21226 21227     9 
21225 21223 21226 21228     9 
21225 21223 21226 21229     9 
21223 21226 21229 21230     9 
21223 21226 21229 21231     9 
21223 21226 21229 21232     9 
21227 21226 21229 21230     9 
21227 21226 21229 21231     9 
21227 21226 21229 21232     9 
21228 21226 21229 21230     9 
21228 21226 21229 21231     9 
21228 21226 21229 21232     9 
21226 21229 21232 21233     9 
21226 21229 21232 21234     9 
21226 21229 21232 21235     9 
21230 21229 21232 21233     9 
21230 21229 21232 21234     9 
21230 21229 21232 21235     9 
21231 21229 21232 21233     9 
21231 21229 21232 21234     9 
21231 21229 21232 21235     9 
21229 21232 21235 21236     9 
21229 21232 21235 21237     9 
21233 21232 21235 21236     9 
21233 21232 21235 21237     9 
21234 21232 21235 21236     9 
21234 21232 21235 21237     9 
21232 21235 21237 21238     9 
21232 21235 21237 21239     9 
21236 21235 21237 21238     9 
21236 21235 21237 21239     9 
21235 21237 21239 21240     9 
21235 21237 21239 21241     9 
21235 21237 21239 21242     9 
21238 21237 21239 21240     9 
21238 21237 21239 21241     9 
21238 21237 21239 21242     9 
21237 21239 21242 21243     9 
21237 21239 21242 21244     9 
21237 21239 21242 21245     9 
21240 21239 21242 21243     9 
21240 21239 21242 21244     9 
21240 21239 21242 21245     9 
21241 21239 21242 21243     9 
21241 21239 21242 21244     9 
21241 21239 21242 21245     9 
21239 21242 21245 21246     9 
21239 21242 21245 21247     9 
21239 21242 21245 21248     9 
21243 21242 21245 21246     9 
21243 21242 21245 21247     9 
21243 21242 21245 21248     9 
21244 21242 21245 21246     9 
21244 21242 21245 21247     9 
21244 21242 21245 21248     9 
21242 21245 21248 21249     9 
21242 21245 21248 21250     9 
21242 21245 21248 21251     9 
21246 21245 21248 21249     9 
21246 21245 21248 21250     9 
21246 21245 21248 21251     9 
21247 21245 21248 21249     9 
21247 21245 21248 21250     9 
21247 21245 21248 21251     9 
21245 21248 21251 21252     9 
21245 21248 21251 21253     9 
21245 21248 21251 21254     9 
21249 21248 21251 21252     9 
21249 21248 21251 21253     9 
21249 21248 21251 21254     9 
21250 21248 21251 21252     9 
21250 21248 21251 21253     9 
21250 21248 21251 21254     9 
21248 21251 21254 21255     9 
21248 21251 21254 21256     9 
21248 21251 21254 21257     9 
21252 21251 21254 21255     9 
21252 21251 21254 21256     9 
21252 21251 21254 21257     9 
21253 21251 21254 21255     9 
21253 21251 21254 21256     9 
21253 21251 21254 21257     9 
21251 21254 21257 21258     9 
21251 21254 21257 21259     9 
21251 21254 21257 21260     9 
21255 21254 21257 21258     9 
21255 21254 21257 21259     9 
21255 21254 21257 21260     9 
21256 21254 21257 21258     9 
21256 21254 21257 21259     9 
21256 21254 21257 21260     9 
21254 21257 21260 21261     9 
21254 21257 21260 21262     9 
21254 21257 21260 21263     9 
21258 21257 21260 21261     9 
21258 21257 21260 21262     9 
21258 21257 21260 21263     9 
21259 21257 21260 21261     9 
21259 21257 21260 21262     9 
21259 21257 21260 21263     9 
21214 21264 21267 21268     9 
21214 21264 21267 21269     9 
21214 21264 21267 21270     9 
21265 21264 21267 21268     9 
21265 21264 21267 21269     9 
21265 21264 21267 21270     9 
21266 21264 21267 21268     9 
21266 21264 21267 21269     9 
21266 21264 21267 21270     9 
21264 21267 21270 21271     9 
21264 21267 21270 21272     9 
21264 21267 21270 21273     9 
21268 21267 21270 21271     9 
21268 21267 21270 21272     9 
21268 21267 21270 21273     9 
21269 21267 21270 21271     9 
21269 21267 21270 21272     9 
21269 21267 21270 21273     9 
21267 21270 21273 21274     9 
21267 21270 21273 21275     9 
21267 21270 21273 21276     9 
21271 21270 21273 21274     9 
21271 21270 21273 21275     9 
21271 21270 21273 21276     9 
21272 21270 21273 21274     9 
21272 21270 21273 21275     9 
21272 21270 21273 21276     9 
21270 21273 21276 21277     9 
21270 21273 21276 21278     9 
21270 21273 21276 21279     9 
21274 21273 21276 21277     9 
21274 21273 21276 21278     9 
21274 21273 21276 21279     9 
21275 21273 21276 21277     9 
21275 21273 21276 21278     9 
21275 21273 21276 21279     9 
21273 21276 21279 21280     9 
21273 21276 21279 21281     9 
21273 21276 21279 21282     9 
21277 21276 21279 21280     9 
21277 21276 21279 21281     9 
21277 21276 21279 21282     9 
21278 21276 21279 21280     9 
21278 21276 21279 21281     9 
21278 21276 21279 21282     9 
21276 21279 21282 21283     9 
21276 21279 21282 21284     9 
21276 21279 21282 21285     9 
21280 21279 21282 21283     9 
21280 21279 21282 21284     9 
21280 21279 21282 21285     9 
21281 21279 21282 21283     9 
21281 21279 21282 21284     9 
21281 21279 21282 21285     9 
21279 21282 21285 21286     9 
21279 21282 21285 21287     9 
21279 21282 21285 21288     9 
21283 21282 21285 21286     9 
21283 21282 21285 21287     9 
21283 21282 21285 21288     9 
21284 21282 21285 21286     9 
21284 21282 21285 21287     9 
21284 21282 21285 21288     9 
21282 21285 21288 21289     9 
21282 21285 21288 21290     9 
21282 21285 21288 21291     9 
21286 21285 21288 21289     9 
21286 21285 21288 21290     9 
21286 21285 21288 21291     9 
21287 21285 21288 21289     9 
21287 21285 21288 21290     9 
21287 21285 21288 21291     9 
21285 21288 21291 21292     9 
21285 21288 21291 21293     9 
21285 21288 21291 21294     9 
21289 21288 21291 21292     9 
21289 21288 21291 21293     9 
21289 21288 21291 21294     9 
21290 21288 21291 21292     9 
21290 21288 21291 21293     9 
21290 21288 21291 21294     9 
21288 21291 21294 21295     9 
21288 21291 21294 21296     9 
21288 21291 21294 21297     9 
21292 21291 21294 21295     9 
21292 21291 21294 21296     9 
21292 21291 21294 21297     9 
21293 21291 21294 21295     9 
21293 21291 21294 21296     9 
21293 21291 21294 21297     9 
21291 21294 21297 21298     9 
21291 21294 21297 21299     9 
21291 21294 21297 21300     9 
21295 21294 21297 21298     9 
21295 21294 21297 21299     9 
21295 21294 21297 21300     9 
21296 21294 21297 21298     9 
21296 21294 21297 21299     9 
21296 21294 21297 21300     9 
21294 21297 21300 21301     9 
21294 21297 21300 21302     9 
21294 21297 21300 21303     9 
21298 21297 21300 21301     9 
21298 21297 21300 21302     9 
21298 21297 21300 21303     9 
21299 21297 21300 21301     9 
21299 21297 21300 21302     9 
21299 21297 21300 21303     9 
21297 21300 21303 21304     9 
21297 21300 21303 21305     9 
21297 21300 21303 21306     9 
21301 21300 21303 21304     9 
21301 21300 21303 21305     9 
21301 21300 21303 21306     9 
21302 21300 21303 21304     9 
21302 21300 21303 21305     9 
21302 21300 21303 21306     9 
21311 21307 21308 21309     9 
21311 21307 21308 21310     9 
21311 21307 21308 21323     9 
21315 21307 21308 21309     9 
21315 21307 21308 21310     9 
21315 21307 21308 21323     9 
21319 21307 21308 21309     9 
21319 21307 21308 21310     9 
21319 21307 21308 21323     9 
21308 21307 21311 21312     9 
21308 21307 21311 21313     9 
21308 21307 21311 21314     9 
21315 21307 21311 21312     9 
21315 21307 21311 21313     9 
21315 21307 21311 21314     9 
21319 21307 21311 21312     9 
21319 21307 21311 21313     9 
21319 21307 21311 21314     9 
21308 21307 21315 21316     9 
21308 21307 21315 21317     9 
21308 21307 21315 21318     9 
21311 21307 21315 21316     9 
21311 21307 21315 21317     9 
21311 21307 21315 21318     9 
21319 21307 21315 21316     9 
21319 21307 21315 21317     9 
21319 21307 21315 21318     9 
21308 21307 21319 21320     9 
21308 21307 21319 21321     9 
21308 21307 21319 21322     9 
21311 21307 21319 21320     9 
21311 21307 21319 21321     9 
21311 21307 21319 21322     9 
21315 21307 21319 21320     9 
21315 21307 21319 21321     9 
21315 21307 21319 21322     9 
21307 21308 21323 21324     9 
21307 21308 21323 21325     9 
21307 21308 21323 21329     9 
21309 21308 21323 21324     9 
21309 21308 21323 21325     9 
21309 21308 21323 21329     9 
21310 21308 21323 21324     9 
21310 21308 21323 21325     9 
21310 21308 21323 21329     9 
21308 21323 21329 21326     9 
21324 21323 21329 21326     9 
21325 21323 21329 21326     9 
21327 21326 21329 21323     9 
21328 21326 21329 21323     9 
21330 21326 21329 21323     9 
21327 21326 21330 21331     9 
21328 21326 21330 21331     9 
21329 21326 21330 21331     9 
21326 21330 21331 21332     9 
21326 21330 21331 21333     9 
21326 21330 21331 21334     9 
21330 21331 21334 21335     9 
21330 21331 21334 21336     9 
21330 21331 21334 21342     9 
21332 21331 21334 21335     9 
21332 21331 21334 21336     9 
21332 21331 21334 21342     9 
21333 21331 21334 21335     9 
21333 21331 21334 21336     9 
21333 21331 21334 21342     9 
21331 21334 21336 21337     9 
21335 21334 21336 21337     9 
21342 21334 21336 21337     9 
21331 21334 21342 21343     9 
21331 21334 21342 21344     9 
21331 21334 21342 21345     9 
21335 21334 21342 21343     9 
21335 21334 21342 21344     9 
21335 21334 21342 21345     9 
21336 21334 21342 21343     9 
21336 21334 21342 21344     9 
21336 21334 21342 21345     9 
21334 21336 21337 21338     9 
21334 21336 21337 21339     9 
21336 21337 21339 21340     9 
21336 21337 21339 21341     9 
21336 21337 21339 21351     9 
21338 21337 21339 21340     9 
21338 21337 21339 21341     9 
21338 21337 21339 21351     9 
21337 21339 21351 21352     9 
21337 21339 21351 21353     9 
21337 21339 21351 21354     9 
21340 21339 21351 21352     9 
21340 21339 21351 21353     9 
21340 21339 21351 21354     9 
21341 21339 21351 21352     9 
21341 21339 21351 21353     9 
21341 21339 21351 21354     9 
21334 21342 21345 21346     9 
21343 21342 21345 21346     9 
21344 21342 21345 21346     9 
21342 21345 21346 21347     9 
21342 21345 21346 21348     9 
21345 21346 21348 21349     9 
21345 21346 21348 21350     9 
21345 21346 21348 21398     9 
21347 21346 21348 21349     9 
21347 21346 21348 21350     9 
21347 21346 21348 21398     9 
21346 21348 21398 21399     9 
21346 21348 21398 21400     9 
21346 21348 21398 21401     9 
21349 21348 21398 21399     9 
21349 21348 21398 21400     9 
21349 21348 21398 21401     9 
21350 21348 21398 21399     9 
21350 21348 21398 21400     9 
21350 21348 21398 21401     9 
21339 21351 21354 21355     9 
21339 21351 21354 21356     9 
21339 21351 21354 21357     9 
21352 21351 21354 21355     9 
21352 21351 21354 21356     9 
21352 21351 21354 21357     9 
21353 21351 21354 21355     9 
21353 21351 21354 21356     9 
21353 21351 21354 21357     9 
21351 21354 21357 21358     9 
21351 21354 21357 21359     9 
21351 21354 21357 21360     9 
21355 21354 21357 21358     9 
21355 21354 21357 21359     9 
21355 21354 21357 21360     9 
21356 21354 21357 21358     9 
21356 21354 21357 21359     9 
21356 21354 21357 21360     9 
21354 21357 21360 21361     9 
21354 21357 21360 21362     9 
21354 21357 21360 21363     9 
21358 21357 21360 21361     9 
21358 21357 21360 21362     9 
21358 21357 21360 21363     9 
21359 21357 21360 21361     9 
21359 21357 21360 21362     9 
21359 21357 21360 21363     9 
21357 21360 21363 21364     9 
21357 21360 21363 21365     9 
21357 21360 21363 21366     9 
21361 21360 21363 21364     9 
21361 21360 21363 21365     9 
21361 21360 21363 21366     9 
21362 21360 21363 21364     9 
21362 21360 21363 21365     9 
21362 21360 21363 21366     9 
21360 21363 21366 21367     9 
21360 21363 21366 21368     9 
21360 21363 21366 21369     9 
21364 21363 21366 21367     9 
21364 21363 21366 21368     9 
21364 21363 21366 21369     9 
21365 21363 21366 21367     9 
21365 21363 21366 21368     9 
21365 21363 21366 21369     9 
21363 21366 21369 21370     9 
21363 21366 21369 21371     9 
21367 21366 21369 21370     9 
21367 21366 21369 21371     9 
21368 21366 21369 21370     9 
21368 21366 21369 21371     9 
21366 21369 21371 21372     9 
21366 21369 21371 21373     9 
21370 21369 21371 21372     9 
21370 21369 21371 21373     9 
21369 21371 21373 21374     9 
21369 21371 21373 21375     9 
21369 21371 21373 21376     9 
21372 21371 21373 21374     9 
21372 21371 21373 21375     9 
21372 21371 21373 21376     9 
21371 21373 21376 21377     9 
21371 21373 21376 21378     9 
21371 21373 21376 21379     9 
21374 21373 21376 21377     9 
21374 21373 21376 21378     9 
21374 21373 21376 21379     9 
21375 21373 21376 21377     9 
21375 21373 21376 21378     9 
21375 21373 21376 21379     9 
21373 21376 21379 21380     9 
21373 21376 21379 21381     9 
21373 21376 21379 21382     9 
21377 21376 21379 21380     9 
21377 21376 21379 21381     9 
21377 21376 21379 21382     9 
21378 21376 21379 21380     9 
21378 21376 21379 21381     9 
21378 21376 21379 21382     9 
21376 21379 21382 21383     9 
21376 21379 21382 21384     9 
21376 21379 21382 21385     9 
21380 21379 21382 21383     9 
21380 21379 21382 21384     9 
21380 21379 21382 21385     9 
21381 21379 21382 21383     9 
21381 21379 21382 21384     9 
21381 21379 21382 21385     9 
21379 21382 21385 21386     9 
21379 21382 21385 21387     9 
21379 21382 21385 21388     9 
21383 21382 21385 21386     9 
21383 21382 21385 21387     9 
21383 21382 21385 21388     9 
21384 21382 21385 21386     9 
21384 21382 21385 21387     9 
21384 21382 21385 21388     9 
21382 21385 21388 21389     9 
21382 21385 21388 21390     9 
21382 21385 21388 21391     9 
21386 21385 21388 21389     9 
21386 21385 21388 21390     9 
21386 21385 21388 21391     9 
21387 21385 21388 21389     9 
21387 21385 21388 21390     9 
21387 21385 21388 21391     9 
21385 21388 21391 21392     9 
21385 21388 21391 21393     9 
21385 21388 21391 21394     9 
21389 21388 21391 21392     9 
21389 21388 21391 21393     9 
21389 21388 21391 21394     9 
21390 21388 21391 21392     9 
21390 21388 21391 21393     9 
21390 21388 21391 21394     9 
21388 21391 21394 21395     9 
21388 21391 21394 21396     9 
21388 21391 21394 21397     9 
21392 21391 21394 21395     9 
21392 21391 21394 21396     9 
21392 21391 21394 21397     9 
21393 21391 21394 21395     9 
21393 21391 21394 21396     9 
21393 21391 21394 21397     9 
21348 21398 21401 21402     9 
21348 21398 21401 21403     9 
21348 21398 21401 21404     9 
21399 21398 21401 21402     9 
21399 21398 21401 21403     9 
21399 21398 21401 21404     9 
21400 21398 21401 21402     9 
21400 21398 21401 21403     9 
21400 21398 21401 21404     9 
21398 21401 21404 21405     9 
21398 21401 21404 21406     9 
21398 21401 21404 21407     9 
21402 21401 21404 21405     9 
21402 21401 21404 21406     9 
21402 21401 21404 21407     9 
21403 21401 21404 21405     9 
21403 21401 21404 21406     9 
21403 21401 21404 21407     9 
21401 21404 21407 21408     9 
21401 21404 21407 21409     9 
21401 21404 21407 21410     9 
21405 21404 21407 21408     9 
21405 21404 21407 21409     9 
21405 21404 21407 21410     9 
21406 21404 21407 21408     9 
21406 21404 21407 21409     9 
21406 21404 21407 21410     9 
21404 21407 21410 21411     9 
21404 21407 21410 21412     9 
21404 21407 21410 21413     9 
21408 21407 21410 21411     9 
21408 21407 21410 21412     9 
21408 21407 21410 21413     9 
21409 21407 21410 21411     9 
21409 21407 21410 21412     9 
21409 21407 21410 21413     9 
21407 21410 21413 21414     9 
21407 21410 21413 21415     9 
21407 21410 21413 21416     9 
21411 21410 21413 21414     9 
21411 21410 21413 21415     9 
21411 21410 21413 21416     9 
21412 21410 21413 21414     9 
21412 21410 21413 21415     9 
21412 21410 21413 21416     9 
21410 21413 21416 21417     9 
21410 21413 21416 21418     9 
21410 21413 21416 21419     9 
21414 21413 21416 21417     9 
21414 21413 21416 21418     9 
21414 21413 21416 21419     9 
21415 21413 21416 21417     9 
21415 21413 21416 21418     9 
21415 21413 21416 21419     9 
21413 21416 21419 21420     9 
21413 21416 21419 21421     9 
21413 21416 21419 21422     9 
21417 21416 21419 21420     9 
21417 21416 21419 21421     9 
21417 21416 21419 21422     9 
21418 21416 21419 21420     9 
21418 21416 21419 21421     9 
21418 21416 21419 21422     9 
21416 21419 21422 21423     9 
21416 21419 21422 21424     9 
21416 21419 21422 21425     9 
21420 21419 21422 21423     9 
21420 21419 21422 21424     9 
21420 21419 21422 21425     9 
21421 21419 21422 21423     9 
21421 21419 21422 21424     9 
21421 21419 21422 21425     9 
21419 21422 21425 21426     9 
21419 21422 21425 21427     9 
21419 21422 21425 21428     9 
21423 21422 21425 21426     9 
21423 21422 21425 21427     9 
21423 21422 21425 21428     9 
21424 21422 21425 21426     9 
21424 21422 21425 21427     9 
21424 21422 21425 21428     9 
21422 21425 21428 21429     9 
21422 21425 21428 21430     9 
21422 21425 21428 21431     9 
21426 21425 21428 21429     9 
21426 21425 21428 21430     9 
21426 21425 21428 21431     9 
21427 21425 21428 21429     9 
21427 21425 21428 21430     9 
21427 21425 21428 21431     9 
21425 21428 21431 21432     9 
21425 21428 21431 21433     9 
21425 21428 21431 21434     9 
21429 21428 21431 21432     9 
21429 21428 21431 21433     9 
21429 21428 21431 21434     9 
21430 21428 21431 21432     9 
21430 21428 21431 21433     9 
21430 21428 21431 21434     9 
21428 21431 21434 21435     9 
21428 21431 21434 21436     9 
21428 21431 21434 21437     9 
21432 21431 21434 21435     9 
21432 21431 21434 21436     9 
21432 21431 21434 21437     9 
21433 21431 21434 21435     9 
21433 21431 21434 21436     9 
21433 21431 21434 21437     9 
21431 21434 21437 21438     9 
21431 21434 21437 21439     9 
21431 21434 21437 21440     9 
21435 21434 21437 21438     9 
21435 21434 21437 21439     9 
21435 21434 21437 21440     9 
21436 21434 21437 21438     9 
21436 21434 21437 21439     9 
21436 21434 21437 21440     9 
21445 21441 21442 21443     9 
21445 21441 21442 21444     9 
21445 21441 21442 21457     9 
21449 21441 21442 21443     9 
21449 21441 21442 21444     9 
21449 21441 21442 21457     9 
21453 21441 21442 21443     9 
21453 21441 21442 21444     9 
21453 21441 21442 21457     9 
21442 21441 21445 21446     9 
21442 21441 21445 21447     9 
21442 21441 21445 21448     9 
21449 21441 21445 21446     9 
21449 21441 21445 21447     9 
21449 21441 21445 21448     9 
21453 21441 21445 21446     9 
21453 21441 21445 21447     9 
21453 21441 21445 21448     9 
21442 21441 21449 21450     9 
21442 21441 21449 21451     9 
21442 21441 21449 21452     9 
21445 21441 21449 21450     9 
21445 21441 21449 21451     9 
21445 21441 21449 21452     9 
21453 21441 21449 21450     9 
21453 21441 21449 21451     9 
21453 21441 21449 21452     9 
21442 21441 21453 21454     9 
21442 21441 21453 21455     9 
21442 21441 21453 21456     9 
21445 21441 21453 21454     9 
21445 21441 21453 21455     9 
21445 21441 21453 21456     9 
21449 21441 21453 21454     9 
21449 21441 21453 21455     9 
21449 21441 21453 21456     9 
21441 21442 21457 21458     9 
21441 21442 21457 21459     9 
21441 21442 21457 21463     9 
21443 21442 21457 21458     9 
21443 21442 21457 21459     9 
21443 21442 21457 21463     9 
21444 21442 21457 21458     9 
21444 21442 21457 21459     9 
21444 21442 21457 21463     9 
21442 21457 21463 21460     9 
21458 21457 21463 21460     9 
21459 21457 21463 21460     9 
21461 21460 21463 21457     9 
21462 21460 21463 21457     9 
21464 21460 21463 21457     9 
21461 21460 21464 21465     9 
21462 21460 21464 21465     9 
21463 21460 21464 21465     9 
21460 21464 21465 21466     9 
21460 21464 21465 21467     9 
21460 21464 21465 21468     9 
21464 21465 21468 21469     9 
21464 21465 21468 21470     9 
21464 21465 21468 21476     9 
21466 21465 21468 21469     9 
21466 21465 21468 21470     9 
21466 21465 21468 21476     9 
21467 21465 21468 21469     9 
21467 21465 21468 21470     9 
21467 21465 21468 21476     9 
21465 21468 21470 21471     9 
21469 21468 21470 21471     9 
21476 21468 21470 21471     9 
21465 21468 21476 21477     9 
21465 21468 21476 21478     9 
21465 21468 21476 21479     9 
21469 21468 21476 21477     9 
21469 21468 21476 21478     9 
21469 21468 21476 21479     9 
21470 21468 21476 21477     9 
21470 21468 21476 21478     9 
21470 21468 21476 21479     9 
21468 21470 21471 21472     9 
21468 21470 21471 21473     9 
21470 21471 21473 21474     9 
21470 21471 21473 21475     9 
21470 21471 21473 21485     9 
21472 21471 21473 21474     9 
21472 21471 21473 21475     9 
21472 21471 21473 21485     9 
21471 21473 21485 21486     9 
21471 21473 21485 21487     9 
21471 21473 21485 21488     9 
21474 21473 21485 21486     9 
21474 21473 21485 21487     9 
21474 21473 21485 21488     9 
21475 21473 21485 21486     9 
21475 21473 21485 21487     9 
21475 21473 21485 21488     9 
21468 21476 21479 21480     9 
21477 21476 21479 21480     9 
21478 21476 21479 21480     9 
21476 21479 21480 21481     9 
21476 21479 21480 21482     9 
21479 21480 21482 21483     9 
21479 21480 21482 21484     9 
21479 21480 21482 21532     9 
21481 21480 21482 21483     9 
21481 21480 21482 21484     9 
21481 21480 21482 21532     9 
21480 21482 21532 21533     9 
21480 21482 21532 21534     9 
21480 21482 21532 21535     9 
21483 21482 21532 21533     9 
21483 21482 21532 21534     9 
21483 21482 21532 21535     9 
21484 21482 21532 21533     9 
21484 21482 21532 21534     9 
21484 21482 21532 21535     9 
21473 21485 21488 21489     9 
21473 21485 21488 21490     9 
21473 21485 21488 21491     9 
21486 21485 21488 21489     9 
21486 21485 21488 21490     9 
21486 21485 21488 21491     9 
21487 21485 21488 21489     9 
21487 21485 21488 21490     9 
21487 21485 21488 21491     9 
21485 21488 21491 21492     9 
21485 21488 21491 21493     9 
21485 21488 21491 21494     9 
21489 21488 21491 21492     9 
21489 21488 21491 21493     9 
21489 21488 21491 21494     9 
21490 21488 21491 21492     9 
21490 21488 21491 21493     9 
21490 21488 21491 21494     9 
21488 21491 21494 21495     9 
21488 21491 21494 21496     9 
21488 21491 21494 21497     9 
21492 21491 21494 21495     9 
21492 21491 21494 21496     9 
21492 21491 21494 21497     9 
21493 21491 21494 21495     9 
21493 21491 21494 21496     9 
21493 21491 21494 21497     9 
21491 21494 21497 21498     9 
21491 21494 21497 21499     9 
21491 21494 21497 21500     9 
21495 21494 21497 21498     9 
21495 21494 21497 21499     9 
21495 21494 21497 21500     9 
21496 21494 21497 21498     9 
21496 21494 21497 21499     9 
21496 21494 21497 21500     9 
21494 21497 21500 21501     9 
21494 21497 21500 21502     9 
21494 21497 21500 21503     9 
21498 21497 21500 21501     9 
21498 21497 21500 21502     9 
21498 21497 21500 21503     9 
21499 21497 21500 21501     9 
21499 21497 21500 21502     9 
21499 21497 21500 21503     9 
21497 21500 21503 21504     9 
21497 21500 21503 21505     9 
21501 21500 21503 21504     9 
21501 21500 21503 21505     9 
21502 21500 21503 21504     9 
21502 21500 21503 21505     9 
21500 21503 21505 21506     9 
21500 21503 21505 21507     9 
21504 21503 21505 21506     9 
21504 21503 21505 21507     9 
21503 21505 21507 21508     9 
21503 21505 21507 21509     9 
21503 21505 21507 21510     9 
21506 21505 21507 21508     9 
21506 21505 21507 21509     9 
21506 21505 21507 21510     9 
21505 21507 21510 21511     9 
21505 21507 21510 21512     9 
21505 21507 21510 21513     9 
21508 21507 21510 21511     9 
21508 21507 21510 21512     9 
21508 21507 21510 21513     9 
21509 21507 21510 21511     9 
21509 21507 21510 21512     9 
21509 21507 21510 21513     9 
21507 21510 21513 21514     9 
21507 21510 21513 21515     9 
21507 21510 21513 21516     9 
21511 21510 21513 21514     9 
21511 21510 21513 21515     9 
21511 21510 21513 21516     9 
21512 21510 21513 21514     9 
21512 21510 21513 21515     9 
21512 21510 21513 21516     9 
21510 21513 21516 21517     9 
21510 21513 21516 21518     9 
21510 21513 21516 21519     9 
21514 21513 21516 21517     9 
21514 21513 21516 21518     9 
21514 21513 21516 21519     9 
21515 21513 21516 21517     9 
21515 21513 21516 21518     9 
21515 21513 21516 21519     9 
21513 21516 21519 21520     9 
21513 21516 21519 21521     9 
21513 21516 21519 21522     9 
21517 21516 21519 21520     9 
21517 21516 21519 21521     9 
21517 21516 21519 21522     9 
21518 21516 21519 21520     9 
21518 21516 21519 21521     9 
21518 21516 21519 21522     9 
21516 21519 21522 21523     9 
21516 21519 21522 21524     9 
21516 21519 21522 21525     9 
21520 21519 21522 21523     9 
21520 21519 21522 21524     9 
21520 21519 21522 21525     9 
21521 21519 21522 21523     9 
21521 21519 21522 21524     9 
21521 21519 21522 21525     9 
21519 21522 21525 21526     9 
21519 21522 21525 21527     9 
21519 21522 21525 21528     9 
21523 21522 21525 21526     9 
21523 21522 21525 21527     9 
21523 21522 21525 21528     9 
21524 21522 21525 21526     9 
21524 21522 21525 21527     9 
21524 21522 21525 21528     9 
21522 21525 21528 21529     9 
21522 21525 21528 21530     9 
21522 21525 21528 21531     9 
21526 21525 21528 21529     9 
21526 21525 21528 21530     9 
21526 21525 21528 21531     9 
21527 21525 21528 21529     9 
21527 21525 21528 21530     9 
21527 21525 21528 21531     9 
21482 21532 21535 21536     9 
21482 21532 21535 21537     9 
21482 21532 21535 21538     9 
21533 21532 21535 21536     9 
21533 21532 21535 21537     9 
21533 21532 21535 21538     9 
21534 21532 21535 21536     9 
21534 21532 21535 21537     9 
21534 21532 21535 21538     9 
21532 21535 21538 21539     9 
21532 21535 21538 21540     9 
21532 21535 21538 21541     9 
21536 21535 21538 21539     9 
21536 21535 21538 21540     9 
21536 21535 21538 21541     9 
21537 21535 21538 21539     9 
21537 21535 21538 21540     9 
21537 21535 21538 21541     9 
21535 21538 21541 21542     9 
21535 21538 21541 21543     9 
21535 21538 21541 21544     9 
21539 21538 21541 21542     9 
21539 21538 21541 21543     9 
21539 21538 21541 21544     9 
21540 21538 21541 21542     9 
21540 21538 21541 21543     9 
21540 21538 21541 21544     9 
21538 21541 21544 21545     9 
21538 21541 21544 21546     9 
21538 21541 21544 21547     9 
21542 21541 21544 21545     9 
21542 21541 21544 21546     9 
21542 21541 21544 21547     9 
21543 21541 21544 21545     9 
21543 21541 21544 21546     9 
21543 21541 21544 21547     9 
21541 21544 21547 21548     9 
21541 21544 21547 21549     9 
21541 21544 21547 21550     9 
21545 21544 21547 21548     9 
21545 21544 21547 21549     9 
21545 21544 21547 21550     9 
21546 21544 21547 21548     9 
21546 21544 21547 21549     9 
21546 21544 21547 21550     9 
21544 21547 21550 21551     9 
21544 21547 21550 21552     9 
21544 21547 21550 21553     9 
21548 21547 21550 21551     9 
21548 21547 21550 21552     9 
21548 21547 21550 21553     9 
21549 21547 21550 21551     9 
21549 21547 21550 21552     9 
21549 21547 21550 21553     9 
21547 21550 21553 21554     9 
21547 21550 21553 21555     9 
21547 21550 21553 21556     9 
21551 21550 21553 21554     9 
21551 21550 21553 21555     9 
21551 21550 21553 21556     9 
21552 21550 21553 21554     9 
21552 21550 21553 21555     9 
21552 21550 21553 21556     9 
21550 21553 21556 21557     9 
21550 21553 21556 21558     9 
21550 21553 21556 21559     9 
21554 21553 21556 21557     9 
21554 21553 21556 21558     9 
21554 21553 21556 21559     9 
21555 21553 21556 21557     9 
21555 21553 21556 21558     9 
21555 21553 21556 21559     9 
21553 21556 21559 21560     9 
21553 21556 21559 21561     9 
21553 21556 21559 21562     9 
21557 21556 21559 21560     9 
21557 21556 21559 21561     9 
21557 21556 21559 21562     9 
21558 21556 21559 21560     9 
21558 21556 21559 21561     9 
21558 21556 21559 21562     9 
21556 21559 21562 21563     9 
21556 21559 21562 21564     9 
21556 21559 21562 21565     9 
21560 21559 21562 21563     9 
21560 21559 21562 21564     9 
21560 21559 21562 21565     9 
21561 21559 21562 21563     9 
21561 21559 21562 21564     9 
21561 21559 21562 21565     9 
21559 21562 21565 21566     9 
21559 21562 21565 21567     9 
21559 21562 21565 21568     9 
21563 21562 21565 21566     9 
21563 21562 21565 21567     9 
21563 21562 21565 21568     9 
21564 21562 21565 21566     9 
21564 21562 21565 21567     9 
21564 21562 21565 21568     9 
21562 21565 21568 21569     9 
21562 21565 21568 21570     9 
21562 21565 21568 21571     9 
21566 21565 21568 21569     9 
21566 21565 21568 21570     9 
21566 21565 21568 21571     9 
21567 21565 21568 21569     9 
21567 21565 21568 21570     9 
21567 21565 21568 21571     9 
21565 21568 21571 21572     9 
21565 21568 21571 21573     9 
21565 21568 21571 21574     9 
21569 21568 21571 21572     9 
21569 21568 21571 21573     9 
21569 21568 21571 21574     9 
21570 21568 21571 21572     9 
21570 21568 21571 21573     9 
21570 21568 21571 21574     9 
21579 21575 21576 21577     9 
21579 21575 21576 21578     9 
21579 21575 21576 21591     9 
21583 21575 21576 21577     9 
21583 21575 21576 21578     9 
21583 21575 21576 21591     9 
21587 21575 21576 21577     9 
21587 21575 21576 21578     9 
21587 21575 21576 21591     9 
21576 21575 21579 21580     9 
21576 21575 21579 21581     9 
21576 21575 21579 21582     9 
21583 21575 21579 21580     9 
21583 21575 21579 21581     9 
21583 21575 21579 21582     9 
21587 21575 21579 21580     9 
21587 21575 21579 21581     9 
21587 21575 21579 21582     9 
21576 21575 21583 21584     9 
21576 21575 21583 21585     9 
21576 21575 21583 21586     9 
21579 21575 21583 21584     9 
21579 21575 21583 21585     9 
21579 21575 21583 21586     9 
21587 21575 21583 21584     9 
21587 21575 21583 21585     9 
21587 21575 21583 21586     9 
21576 21575 21587 21588     9 
21576 21575 21587 21589     9 
21576 21575 21587 21590     9 
21579 21575 21587 21588     9 
21579 21575 21587 21589     9 
21579 21575 21587 21590     9 
21583 21575 21587 21588     9 
21583 21575 21587 21589     9 
21583 21575 21587 21590     9 
21575 21576 21591 21592     9 
21575 21576 21591 21593     9 
21575 21576 21591 21597     9 
21577 21576 21591 21592     9 
21577 21576 21591 21593     9 
21577 21576 21591 21597     9 
21578 21576 21591 21592     9 
21578 21576 21591 21593     9 
21578 21576 21591 21597     9 
21576 21591 21597 21594     9 
21592 21591 21597 21594     9 
21593 21591 21597 21594     9 
21595 21594 21597 21591     9 
21596 21594 21597 21591     9 
21598 21594 21597 21591     9 
21595 21594 21598 21599     9 
21596 21594 21598 21599     9 
21597 21594 21598 21599     9 
21594 21598 21599 21600     9 
21594 21598 21599 21601     9 
21594 21598 21599 21602     9 
21598 21599 21602 21603     9 
21598 21599 21602 21604     9 
21598 21599 21602 21610     9 
21600 21599 21602 21603     9 
21600 21599 21602 21604     9 
21600 21599 21602 21610     9 
21601 21599 21602 21603     9 
21601 21599 21602 21604     9 
21601 21599 21602 21610     9 
21599 21602 21604 21605     9 
21603 21602 21604 21605     9 
21610 21602 21604 21605     9 
21599 21602 21610 21611     9 
21599 21602 21610 21612     9 
21599 21602 21610 21613     9 
21603 21602 21610 21611     9 
21603 21602 21610 21612     9 
21603 21602 21610 21613     9 
21604 21602 21610 21611     9 
21604 21602 21610 21612     9 
21604 21602 21610 21613     9 
21602 21604 21605 21606     9 
21602 21604 21605 21607     9 
21604 21605 21607 21608     9 
21604 21605 21607 21609     9 
21604 21605 21607 21619     9 
21606 21605 21607 21608     9 
21606 21605 21607 21609     9 
21606 21605 21607 21619     9 
21605 21607 21619 21620     9 
21605 21607 21619 21621     9 
21605 21607 21619 21622     9 
21608 21607 21619 21620     9 
21608 21607 21619 21621     9 
21608 21607 21619 21622     9 
21609 21607 21619 21620     9 
21609 21607 21619 21621     9 
21609 21607 21619 21622     9 
21602 21610 21613 21614     9 
21611 21610 21613 21614     9 
21612 21610 21613 21614     9 
21610 21613 21614 21615     9 
21610 21613 21614 21616     9 
21613 21614 21616 21617     9 
21613 21614 21616 21618     9 
21613 21614 21616 21666     9 
21615 21614 21616 21617     9 
21615 21614 21616 21618     9 
21615 21614 21616 21666     9 
21614 21616 21666 21667     9 
21614 21616 21666 21668     9 
21614 21616 21666 21669     9 
21617 21616 21666 21667     9 
21617 21616 21666 21668     9 
21617 21616 21666 21669     9 
21618 21616 21666 21667     9 
21618 21616 21666 21668     9 
21618 21616 21666 21669     9 
21607 21619 21622 21623     9 
21607 21619 21622 21624     9 
21607 21619 21622 21625     9 
21620 21619 21622 21623     9 
21620 21619 21622 21624     9 
21620 21619 21622 21625     9 
21621 21619 21622 21623     9 
21621 21619 21622 21624     9 
21621 21619 21622 21625     9 
21619 21622 21625 21626     9 
21619 21622 21625 21627     9 
21619 21622 21625 21628     9 
21623 21622 21625 21626     9 
21623 21622 21625 21627     9 
21623 21622 21625 21628     9 
21624 21622 21625 21626     9 
21624 21622 21625 21627     9 
21624 21622 21625 21628     9 
21622 21625 21628 21629     9 
21622 21625 21628 21630     9 
21622 21625 21628 21631     9 
21626 21625 21628 21629     9 
21626 21625 21628 21630     9 
21626 21625 21628 21631     9 
21627 21625 21628 21629     9 
21627 21625 21628 21630     9 
21627 21625 21628 21631     9 
21625 21628 21631 21632     9 
21625 21628 21631 21633     9 
21625 21628 21631 21634     9 
21629 21628 21631 21632     9 
21629 21628 21631 21633     9 
21629 21628 21631 21634     9 
21630 21628 21631 21632     9 
21630 21628 21631 21633     9 
21630 21628 21631 21634     9 
21628 21631 21634 21635     9 
21628 21631 21634 21636     9 
21628 21631 21634 21637     9 
21632 21631 21634 21635     9 
21632 21631 21634 21636     9 
21632 21631 21634 21637     9 
21633 21631 21634 21635     9 
21633 21631 21634 21636     9 
21633 21631 21634 21637     9 
21631 21634 21637 21638     9 
21631 21634 21637 21639     9 
21635 21634 21637 21638     9 
21635 21634 21637 21639     9 
21636 21634 21637 21638     9 
21636 21634 21637 21639     9 
21634 21637 21639 21640     9 
21634 21637 21639 21641     9 
21638 21637 21639 21640     9 
21638 21637 21639 21641     9 
21637 21639 21641 21642     9 
21637 21639 21641 21643     9 
21637 21639 21641 21644     9 
21640 21639 21641 21642     9 
21640 21639 21641 21643     9 
21640 21639 21641 21644     9 
21639 21641 21644 21645     9 
21639 21641 21644 21646     9 
21639 21641 21644 21647     9 
21642 21641 21644 21645     9 
21642 21641 21644 21646     9 
21642 21641 21644 21647     9 
21643 21641 21644 21645     9 
21643 21641 21644 21646     9 
21643 21641 21644 21647     9 
21641 21644 21647 21648     9 
21641 21644 21647 21649     9 
21641 21644 21647 21650     9 
21645 21644 21647 21648     9 
21645 21644 21647 21649     9 
21645 21644 21647 21650     9 
21646 21644 21647 21648     9 
21646 21644 21647 21649     9 
21646 21644 21647 21650     9 
21644 21647 21650 21651     9 
21644 21647 21650 21652     9 
21644 21647 21650 21653     9 
21648 21647 21650 21651     9 
21648 21647 21650 21652     9 
21648 21647 21650 21653     9 
21649 21647 21650 21651     9 
21649 21647 21650 21652     9 
21649 21647 21650 21653     9 
21647 21650 21653 21654     9 
21647 21650 21653 21655     9 
21647 21650 21653 21656     9 
21651 21650 21653 21654     9 
21651 21650 21653 21655     9 
21651 21650 21653 21656     9 
21652 21650 21653 21654     9 
21652 21650 21653 21655     9 
21652 21650 21653 21656     9 
21650 21653 21656 21657     9 
21650 21653 21656 21658     9 
21650 21653 21656 21659     9 
21654 21653 21656 21657     9 
21654 21653 21656 21658     9 
21654 21653 21656 21659     9 
21655 21653 21656 21657     9 
21655 21653 21656 21658     9 
21655 21653 21656 21659     9 
21653 21656 21659 21660     9 
21653 21656 21659 21661     9 
21653 21656 21659 21662     9 
21657 21656 21659 21660     9 
21657 21656 21659 21661     9 
21657 21656 21659 21662     9 
21658 21656 21659 21660     9 
21658 21656 21659 21661     9 
21658 21656 21659 21662     9 
21656 21659 21662 21663     9 
21656 21659 21662 21664     9 
21656 21659 21662 21665     9 
21660 21659 21662 21663     9 
21660 21659 21662 21664     9 
21660 21659 21662 21665     9 
21661 21659 21662 21663     9 
21661 21659 21662 21664     9 
21661 21659 21662 21665     9 
21616 21666 21669 21670     9 
21616 21666 21669 21671     9 
21616 21666 21669 21672     9 
21667 21666 21669 21670     9 
21667 21666 21669 21671     9 
21667 21666 21669 21672     9 
21668 21666 21669 21670     9 
21668 21666 21669 21671     9 
21668 21666 21669 21672     9 
21666 21669 21672 21673     9 
21666 21669 21672 21674     9 
21666 21669 21672 21675     9 
21670 21669 21672 21673     9 
21670 21669 21672 21674     9 
21670 21669 21672 21675     9 
21671 21669 21672 21673     9 
21671 21669 21672 21674     9 
21671 21669 21672 21675     9 
21669 21672 21675 21676     9 
21669 21672 21675 21677     9 
21669 21672 21675 21678     9 
21673 21672 21675 21676     9 
21673 21672 21675 21677     9 
21673 21672 21675 21678     9 
21674 21672 21675 21676     9 
21674 21672 21675 21677     9 
21674 21672 21675 21678     9 
21672 21675 21678 21679     9 
21672 21675 21678 21680     9 
21672 21675 21678 21681     9 
21676 21675 21678 21679     9 
21676 21675 21678 21680     9 
21676 21675 21678 21681     9 
21677 21675 21678 21679     9 
21677 21675 21678 21680     9 
21677 21675 21678 21681     9 
21675 21678 21681 21682     9 
21675 21678 21681 21683     9 
21675 21678 21681 21684     9 
21679 21678 21681 21682     9 
21679 21678 21681 21683     9 
21679 21678 21681 21684     9 
21680 21678 21681 21682     9 
21680 21678 21681 21683     9 
21680 21678 21681 21684     9 
21678 21681 21684 21685     9 
21678 21681 21684 21686     9 
21678 21681 21684 21687     9 
21682 21681 21684 21685     9 
21682 21681 21684 21686     9 
21682 21681 21684 21687     9 
21683 21681 21684 21685     9 
21683 21681 21684 21686     9 
21683 21681 21684 21687     9 
21681 21684 21687 21688     9 
21681 21684 21687 21689     9 
21681 21684 21687 21690     9 
21685 21684 21687 21688     9 
21685 21684 21687 21689     9 
21685 21684 21687 21690     9 
21686 21684 21687 21688     9 
21686 21684 21687 21689     9 
21686 21684 21687 21690     9 
21684 21687 21690 21691     9 
21684 21687 21690 21692     9 
21684 21687 21690 21693     9 
21688 21687 21690 21691     9 
21688 21687 21690 21692     9 
21688 21687 21690 21693     9 
21689 21687 21690 21691     9 
21689 21687 21690 21692     9 
21689 21687 21690 21693     9 
21687 21690 21693 21694     9 
21687 21690 21693 21695     9 
21687 21690 21693 21696     9 
21691 21690 21693 21694     9 
21691 21690 21693 21695     9 
21691 21690 21693 21696     9 
21692 21690 21693 21694     9 
21692 21690 21693 21695     9 
21692 21690 21693 21696     9 
21690 21693 21696 21697     9 
21690 21693 21696 21698     9 
21690 21693 21696 21699     9 
21694 21693 21696 21697     9 
21694 21693 21696 21698     9 
21694 21693 21696 21699     9 
21695 21693 21696 21697     9 
21695 21693 21696 21698     9 
21695 21693 21696 21699     9 
21693 21696 21699 21700     9 
21693 21696 21699 21701     9 
21693 21696 21699 21702     9 
21697 21696 21699 21700     9 
21697 21696 21699 21701     9 
21697 21696 21699 21702     9 
21698 21696 21699 21700     9 
21698 21696 21699 21701     9 
21698 21696 21699 21702     9 
21696 21699 21702 21703     9 
21696 21699 21702 21704     9 
21696 21699 21702 21705     9 
21700 21699 21702 21703     9 
21700 21699 21702 21704     9 
21700 21699 21702 21705     9 
21701 21699 21702 21703     9 
21701 21699 21702 21704     9 
21701 21699 21702 21705     9 
21699 21702 21705 21706     9 
21699 21702 21705 21707     9 
21699 21702 21705 21708     9 
21703 21702 21705 21706     9 
21703 21702 21705 21707     9 
21703 21702 21705 21708     9 
21704 21702 21705 21706     9 
21704 21702 21705 21707     9 
21704 21702 21705 21708     9 
21713 21709 21710 21711     9 
21713 21709 21710 21712     9 
21713 21709 21710 21725     9 
21717 21709 21710 21711     9 
21717 21709 21710 21712     9 
21717 21709 21710 21725     9 
21721 21709 21710 21711     9 
21721 21709 21710 21712     9 
21721 21709 21710 21725     9 
21710 21709 21713 21714     9 
21710 21709 21713 21715     9 
21710 21709 21713 21716     9 
21717 21709 21713 21714     9 
21717 21709 21713 21715     9 
21717 21709 21713 21716     9 
21721 21709 21713 21714     9 
21721 21709 21713 21715     9 
21721 21709 21713 21716     9 
21710 21709 21717 21718     9 
21710 21709 21717 21719     9 
21710 21709 21717 21720     9 
21713 21709 21717 21718     9 
21713 21709 21717 21719     9 
21713 21709 21717 21720     9 
21721 21709 21717 21718     9 
21721 21709 21717 21719     9 
21721 21709 21717 21720     9 
21710 21709 21721 21722     9 
21710 21709 21721 21723     9 
21710 21709 21721 21724     9 
21713 21709 21721 21722     9 
21713 21709 21721 21723     9 
21713 21709 21721 21724     9 
21717 21709 21721 21722     9 
21717 21709 21721 21723     9 
21717 21709 21721 21724     9 
21709 21710 21725 21726     9 
21709 21710 21725 21727     9 
21709 21710 21725 21731     9 
21711 21710 21725 21726     9 
21711 21710 21725 21727     9 
21711 21710 21725 21731     9 
21712 21710 21725 21726     9 
21712 21710 21725 21727     9 
21712 21710 21725 21731     9 
21710 21725 21731 21728     9 
21726 21725 21731 21728     9 
21727 21725 21731 21728     9 
21729 21728 21731 21725     9 
21730 21728 21731 21725     9 
21732 21728 21731 21725     9 
21729 21728 21732 21733     9 
21730 21728 21732 21733     9 
21731 21728 21732 21733     9 
21728 21732 21733 21734     9 
21728 21732 21733 21735     9 
21728 21732 21733 21736     9 
21732 21733 21736 21737     9 
21732 21733 21736 21738     9 
21732 21733 21736 21744     9 
21734 21733 21736 21737     9 
21734 21733 21736 21738     9 
21734 21733 21736 21744     9 
21735 21733 21736 21737     9 
21735 21733 21736 21738     9 
21735 21733 21736 21744     9 
21733 21736 21738 21739     9 
21737 21736 21738 21739     9 
21744 21736 21738 21739     9 
21733 21736 21744 21745     9 
21733 21736 21744 21746     9 
21733 21736 21744 21747     9 
21737 21736 21744 21745     9 
21737 21736 21744 21746     9 
21737 21736 21744 21747     9 
21738 21736 21744 21745     9 
21738 21736 21744 21746     9 
21738 21736 21744 21747     9 
21736 21738 21739 21740     9 
21736 21738 21739 21741     9 
21738 21739 21741 21742     9 
21738 21739 21741 21743     9 
21738 21739 21741 21753     9 
21740 21739 21741 21742     9 
21740 21739 21741 21743     9 
21740 21739 21741 21753     9 
21739 21741 21753 21754     9 
21739 21741 21753 21755     9 
21739 21741 21753 21756     9 
21742 21741 21753 21754     9 
21742 21741 21753 21755     9 
21742 21741 21753 21756     9 
21743 21741 21753 21754     9 
21743 21741 21753 21755     9 
21743 21741 21753 21756     9 
21736 21744 21747 21748     9 
21745 21744 21747 21748     9 
21746 21744 21747 21748     9 
21744 21747 21748 21749     9 
21744 21747 21748 21750     9 
21747 21748 21750 21751     9 
21747 21748 21750 21752     9 
21747 21748 21750 21800     9 
21749 21748 21750 21751     9 
21749 21748 21750 21752     9 
21749 21748 21750 21800     9 
21748 21750 21800 21801     9 
21748 21750 21800 21802     9 
21748 21750 21800 21803     9 
21751 21750 21800 21801     9 
21751 21750 21800 21802     9 
21751 21750 21800 21803     9 
21752 21750 21800 21801     9 
21752 21750 21800 21802     9 
21752 21750 21800 21803     9 
21741 21753 21756 21757     9 
21741 21753 21756 21758     9 
21741 21753 21756 21759     9 
21754 21753 21756 21757     9 
21754 21753 21756 21758     9 
21754 21753 21756 21759     9 
21755 21753 21756 21757     9 
21755 21753 21756 21758     9 
21755 21753 21756 21759     9 
21753 21756 21759 21760     9 
21753 21756 21759 21761     9 
21753 21756 21759 21762     9 
21757 21756 21759 21760     9 
21757 21756 21759 21761     9 
21757 21756 21759 21762     9 
21758 21756 21759 21760     9 
21758 21756 21759 21761     9 
21758 21756 21759 21762     9 
21756 21759 21762 21763     9 
21756 21759 21762 21764     9 
21756 21759 21762 21765     9 
21760 21759 21762 21763     9 
21760 21759 21762 21764     9 
21760 21759 21762 21765     9 
21761 21759 21762 21763     9 
21761 21759 21762 21764     9 
21761 21759 21762 21765     9 
21759 21762 21765 21766     9 
21759 21762 21765 21767     9 
21759 21762 21765 21768     9 
21763 21762 21765 21766     9 
21763 21762 21765 21767     9 
21763 21762 21765 21768     9 
21764 21762 21765 21766     9 
21764 21762 21765 21767     9 
21764 21762 21765 21768     9 
21762 21765 21768 21769     9 
21762 21765 21768 21770     9 
21762 21765 21768 21771     9 
21766 21765 21768 21769     9 
21766 21765 21768 21770     9 
21766 21765 21768 21771     9 
21767 21765 21768 21769     9 
21767 21765 21768 21770     9 
21767 21765 21768 21771     9 
21765 21768 21771 21772     9 
21765 21768 21771 21773     9 
21769 21768 21771 21772     9 
21769 21768 21771 21773     9 
21770 21768 21771 21772     9 
21770 21768 21771 21773     9 
21768 21771 21773 21774     9 
21768 21771 21773 21775     9 
21772 21771 21773 21774     9 
21772 21771 21773 21775     9 
21771 21773 21775 21776     9 
21771 21773 21775 21777     9 
21771 21773 21775 21778     9 
21774 21773 21775 21776     9 
21774 21773 21775 21777     9 
21774 21773 21775 21778     9 
21773 21775 21778 21779     9 
21773 21775 21778 21780     9 
21773 21775 21778 21781     9 
21776 21775 21778 21779     9 
21776 21775 21778 21780     9 
21776 21775 21778 21781     9 
21777 21775 21778 21779     9 
21777 21775 21778 21780     9 
21777 21775 21778 21781     9 
21775 21778 21781 21782     9 
21775 21778 21781 21783     9 
21775 21778 21781 21784     9 
21779 21778 21781 21782     9 
21779 21778 21781 21783     9 
21779 21778 21781 21784     9 
21780 21778 21781 21782     9 
21780 21778 21781 21783     9 
21780 21778 21781 21784     9 
21778 21781 21784 21785     9 
21778 21781 21784 21786     9 
21778 21781 21784 21787     9 
21782 21781 21784 21785     9 
21782 21781 21784 21786     9 
21782 21781 21784 21787     9 
21783 21781 21784 21785     9 
21783 21781 21784 21786     9 
21783 21781 21784 21787     9 
21781 21784 21787 21788     9 
21781 21784 21787 21789     9 
21781 21784 21787 21790     9 
21785 21784 21787 21788     9 
21785 21784 21787 21789     9 
21785 21784 21787 21790     9 
21786 21784 21787 21788     9 
21786 21784 21787 21789     9 
21786 21784 21787 21790     9 
21784 21787 21790 21791     9 
21784 21787 21790 21792     9 
21784 21787 21790 21793     9 
21788 21787 21790 21791     9 
21788 21787 21790 21792     9 
21788 21787 21790 21793     9 
21789 21787 21790 21791     9 
21789 21787 21790 21792     9 
21789 21787 21790 21793     9 
21787 21790 21793 21794     9 
21787 21790 21793 21795     9 
21787 21790 21793 21796     9 
21791 21790 21793 21794     9 
21791 21790 21793 21795     9 
21791 21790 21793 21796     9 
21792 21790 21793 21794     9 
21792 21790 21793 21795     9 
21792 21790 21793 21796     9 
21790 21793 21796 21797     9 
21790 21793 21796 21798     9 
21790 21793 21796 21799     9 
21794 21793 21796 21797     9 
21794 21793 21796 21798     9 
21794 21793 21796 21799     9 
21795 21793 21796 21797     9 
21795 21793 21796 21798     9 
21795 21793 21796 21799     9 
21750 21800 21803 21804     9 
21750 21800 21803 21805     9 
21750 21800 21803 21806     9 
21801 21800 21803 21804     9 
21801 21800 21803 21805     9 
21801 21800 21803 21806     9 
21802 21800 21803 21804     9 
21802 21800 21803 21805     9 
21802 21800 21803 21806     9 
21800 21803 21806 21807     9 
21800 21803 21806 21808     9 
21800 21803 21806 21809     9 
21804 21803 21806 21807     9 
21804 21803 21806 21808     9 
21804 21803 21806 21809     9 
21805 21803 21806 21807     9 
21805 21803 21806 21808     9 
21805 21803 21806 21809     9 
21803 21806 21809 21810     9 
21803 21806 21809 21811     9 
21803 21806 21809 21812     9 
21807 21806 21809 21810     9 
21807 21806 21809 21811     9 
21807 21806 21809 21812     9 
21808 21806 21809 21810     9 
21808 21806 21809 21811     9 
21808 21806 21809 21812     9 
21806 21809 21812 21813     9 
21806 21809 21812 21814     9 
21806 21809 21812 21815     9 
21810 21809 21812 21813     9 
21810 21809 21812 21814     9 
21810 21809 21812 21815     9 
21811 21809 21812 21813     9 
21811 21809 21812 21814     9 
21811 21809 21812 21815     9 
21809 21812 21815 21816     9 
21809 21812 21815 21817     9 
21809 21812 21815 21818     9 
21813 21812 21815 21816     9 
21813 21812 21815 21817     9 
21813 21812 21815 21818     9 
21814 21812 21815 21816     9 
21814 21812 21815 21817     9 
21814 21812 21815 21818     9 
21812 21815 21818 21819     9 
21812 21815 21818 21820     9 
21812 21815 21818 21821     9 
21816 21815 21818 21819     9 
21816 21815 21818 21820     9 
21816 21815 21818 21821     9 
21817 21815 21818 21819     9 
21817 21815 21818 21820     9 
21817 21815 21818 21821     9 
21815 21818 21821 21822     9 
21815 21818 21821 21823     9 
21815 21818 21821 21824     9 
21819 21818 21821 21822     9 
21819 21818 21821 21823     9 
21819 21818 21821 21824     9 
21820 21818 21821 21822     9 
21820 21818 21821 21823     9 
21820 21818 21821 21824     9 
21818 21821 21824 21825     9 
21818 21821 21824 21826     9 
21818 21821 21824 21827     9 
21822 21821 21824 21825     9 
21822 21821 21824 21826     9 
21822 21821 21824 21827     9 
21823 21821 21824 21825     9 
21823 21821 21824 21826     9 
21823 21821 21824 21827     9 
21821 21824 21827 21828     9 
21821 21824 21827 21829     9 
21821 21824 21827 21830     9 
21825 21824 21827 21828     9 
21825 21824 21827 21829     9 
21825 21824 21827 21830     9 
21826 21824 21827 21828     9 
21826 21824 21827 21829     9 
21826 21824 21827 21830     9 
21824 21827 21830 21831     9 
21824 21827 21830 21832     9 
21824 21827 21830 21833     9 
21828 21827 21830 21831     9 
21828 21827 21830 21832     9 
21828 21827 21830 21833     9 
21829 21827 21830 21831     9 
21829 21827 21830 21832     9 
21829 21827 21830 21833     9 
21827 21830 21833 21834     9 
21827 21830 21833 21835     9 
21827 21830 21833 21836     9 
21831 21830 21833 21834     9 
21831 21830 21833 21835     9 
21831 21830 21833 21836     9 
21832 21830 21833 21834     9 
21832 21830 21833 21835     9 
21832 21830 21833 21836     9 
21830 21833 21836 21837     9 
21830 21833 21836 21838     9 
21830 21833 21836 21839     9 
21834 21833 21836 21837     9 
21834 21833 21836 21838     9 
21834 21833 21836 21839     9 
21835 21833 21836 21837     9 
21835 21833 21836 21838     9 
21835 21833 21836 21839     9 
21833 21836 21839 21840     9 
21833 21836 21839 21841     9 
21833 21836 21839 21842     9 
21837 21836 21839 21840     9 
21837 21836 21839 21841     9 
21837 21836 21839 21842     9 
21838 21836 21839 21840     9 
21838 21836 21839 21841     9 
21838 21836 21839 21842     9 
21847 21843 21844 21845     9 
21847 21843 21844 21846     9 
21847 21843 21844 21859     9 
21851 21843 21844 21845     9 
21851 21843 21844 21846     9 
21851 21843 21844 21859     9 
21855 21843 21844 21845     9 
21855 21843 21844 21846     9 
21855 21843 21844 21859     9 
21844 21843 21847 21848     9 
21844 21843 21847 21849     9 
21844 21843 21847 21850     9 
21851 21843 21847 21848     9 
21851 21843 21847 21849     9 
21851 21843 21847 21850     9 
21855 21843 21847 21848     9 
21855 21843 21847 21849     9 
21855 21843 21847 21850     9 
21844 21843 21851 21852     9 
21844 21843 21851 21853     9 
21844 21843 21851 21854     9 
21847 21843 21851 21852     9 
21847 21843 21851 21853     9 
21847 21843 21851 21854     9 
21855 21843 21851 21852     9 
21855 21843 21851 21853     9 
21855 21843 21851 21854     9 
21844 21843 21855 21856     9 
21844 21843 21855 21857     9 
21844 21843 21855 21858     9 
21847 21843 21855 21856     9 
21847 21843 21855 21857     9 
21847 21843 21855 21858     9 
21851 21843 21855 21856     9 
21851 21843 21855 21857     9 
21851 21843 21855 21858     9 
21843 21844 21859 21860     9 
21843 21844 21859 21861     9 
21843 21844 21859 21865     9 
21845 21844 21859 21860     9 
21845 21844 21859 21861     9 
21845 21844 21859 21865     9 
21846 21844 21859 21860     9 
21846 21844 21859 21861     9 
21846 21844 21859 21865     9 
21844 21859 21865 21862     9 
21860 21859 21865 21862     9 
21861 21859 21865 21862     9 
21863 21862 21865 21859     9 
21864 21862 21865 21859     9 
21866 21862 21865 21859     9 
21863 21862 21866 21867     9 
21864 21862 21866 21867     9 
21865 21862 21866 21867     9 
21862 21866 21867 21868     9 
21862 21866 21867 21869     9 
21862 21866 21867 21870     9 
21866 21867 21870 21871     9 
21866 21867 21870 21872     9 
21866 21867 21870 21878     9 
21868 21867 21870 21871     9 
21868 21867 21870 21872     9 
21868 21867 21870 21878     9 
21869 21867 21870 21871     9 
21869 21867 21870 21872     9 
21869 21867 21870 21878     9 
21867 21870 21872 21873     9 
21871 21870 21872 21873     9 
21878 21870 21872 21873     9 
21867 21870 21878 21879     9 
21867 21870 21878 21880     9 
21867 21870 21878 21881     9 
21871 21870 21878 21879     9 
21871 21870 21878 21880     9 
21871 21870 21878 21881     9 
21872 21870 21878 21879     9 
21872 21870 21878 21880     9 
21872 21870 21878 21881     9 
21870 21872 21873 21874     9 
21870 21872 21873 21875     9 
21872 21873 21875 21876     9 
21872 21873 21875 21877     9 
21872 21873 21875 21887     9 
21874 21873 21875 21876     9 
21874 21873 21875 21877     9 
21874 21873 21875 21887     9 
21873 21875 21887 21888     9 
21873 21875 21887 21889     9 
21873 21875 21887 21890     9 
21876 21875 21887 21888     9 
21876 21875 21887 21889     9 
21876 21875 21887 21890     9 
21877 21875 21887 21888     9 
21877 21875 21887 21889     9 
21877 21875 21887 21890     9 
21870 21878 21881 21882     9 
21879 21878 21881 21882     9 
21880 21878 21881 21882     9 
21878 21881 21882 21883     9 
21878 21881 21882 21884     9 
21881 21882 21884 21885     9 
21881 21882 21884 21886     9 
21881 21882 21884 21934     9 
21883 21882 21884 21885     9 
21883 21882 21884 21886     9 
21883 21882 21884 21934     9 
21882 21884 21934 21935     9 
21882 21884 21934 21936     9 
21882 21884 21934 21937     9 
21885 21884 21934 21935     9 
21885 21884 21934 21936     9 
21885 21884 21934 21937     9 
21886 21884 21934 21935     9 
21886 21884 21934 21936     9 
21886 21884 21934 21937     9 
21875 21887 21890 21891     9 
21875 21887 21890 21892     9 
21875 21887 21890 21893     9 
21888 21887 21890 21891     9 
21888 21887 21890 21892     9 
21888 21887 21890 21893     9 
21889 21887 21890 21891     9 
21889 21887 21890 21892     9 
21889 21887 21890 21893     9 
21887 21890 21893 21894     9 
21887 21890 21893 21895     9 
21887 21890 21893 21896     9 
21891 21890 21893 21894     9 
21891 21890 21893 21895     9 
21891 21890 21893 21896     9 
21892 21890 21893 21894     9 
21892 21890 21893 21895     9 
21892 21890 21893 21896     9 
21890 21893 21896 21897     9 
21890 21893 21896 21898     9 
21890 21893 21896 21899     9 
21894 21893 21896 21897     9 
21894 21893 21896 21898     9 
21894 21893 21896 21899     9 
21895 21893 21896 21897     9 
21895 21893 21896 21898     9 
21895 21893 21896 21899     9 
21893 21896 21899 21900     9 
21893 21896 21899 21901     9 
21893 21896 21899 21902     9 
21897 21896 21899 21900     9 
21897 21896 21899 21901     9 
21897 21896 21899 21902     9 
21898 21896 21899 21900     9 
21898 21896 21899 21901     9 
21898 21896 21899 21902     9 
21896 21899 21902 21903     9 
21896 21899 21902 21904     9 
21896 21899 21902 21905     9 
21900 21899 21902 21903     9 
21900 21899 21902 21904     9 
21900 21899 21902 21905     9 
21901 21899 21902 21903     9 
21901 21899 21902 21904     9 
21901 21899 21902 21905     9 
21899 21902 21905 21906     9 
21899 21902 21905 21907     9 
21903 21902 21905 21906     9 
21903 21902 21905 21907     9 
21904 21902 21905 21906     9 
21904 21902 21905 21907     9 
21902 21905 21907 21908     9 
21902 21905 21907 21909     9 
21906 21905 21907 21908     9 
21906 21905 21907 21909     9 
21905 21907 21909 21910     9 
21905 21907 21909 21911     9 
21905 21907 21909 21912     9 
21908 21907 21909 21910     9 
21908 21907 21909 21911     9 
21908 21907 21909 21912     9 
21907 21909 21912 21913     9 
21907 21909 21912 21914     9 
21907 21909 21912 21915     9 
21910 21909 21912 21913     9 
21910 21909 21912 21914     9 
21910 21909 21912 21915     9 
21911 21909 21912 21913     9 
21911 21909 21912 21914     9 
21911 21909 21912 21915     9 
21909 21912 21915 21916     9 
21909 21912 21915 21917     9 
21909 21912 21915 21918     9 
21913 21912 21915 21916     9 
21913 21912 21915 21917     9 
21913 21912 21915 21918     9 
21914 21912 21915 21916     9 
21914 21912 21915 21917     9 
21914 21912 21915 21918     9 
21912 21915 21918 21919     9 
21912 21915 21918 21920     9 
21912 21915 21918 21921     9 
21916 21915 21918 21919     9 
21916 21915 21918 21920     9 
21916 21915 21918 21921     9 
21917 21915 21918 21919     9 
21917 21915 21918 21920     9 
21917 21915 21918 21921     9 
21915 21918 21921 21922     9 
21915 21918 21921 21923     9 
21915 21918 21921 21924     9 
21919 21918 21921 21922     9 
21919 21918 21921 21923     9 
21919 21918 21921 21924     9 
21920 21918 21921 21922     9 
21920 21918 21921 21923     9 
21920 21918 21921 21924     9 
21918 21921 21924 21925     9 
21918 21921 21924 21926     9 
21918 21921 21924 21927     9 
21922 21921 21924 21925     9 
21922 21921 21924 21926     9 
21922 21921 21924 21927     9 
21923 21921 21924 21925     9 
21923 21921 21924 21926     9 
21923 21921 21924 21927     9 
21921 21924 21927 21928     9 
21921 21924 21927 21929     9 
21921 21924 21927 21930     9 
21925 21924 21927 21928     9 
21925 21924 21927 21929     9 
21925 21924 21927 21930     9 
21926 21924 21927 21928     9 
21926 21924 21927 21929     9 
21926 21924 21927 21930     9 
21924 21927 21930 21931     9 
21924 21927 21930 21932     9 
21924 21927 21930 21933     9 
21928 21927 21930 21931     9 
21928 21927 21930 21932     9 
21928 21927 21930 21933     9 
21929 21927 21930 21931     9 
21929 21927 21930 21932     9 
21929 21927 21930 21933     9 
21884 21934 21937 21938     9 
21884 21934 21937 21939     9 
21884 21934 21937 21940     9 
21935 21934 21937 21938     9 
21935 21934 21937 21939     9 
21935 21934 21937 21940     9 
21936 21934 21937 21938     9 
21936 21934 21937 21939     9 
21936 21934 21937 21940     9 
21934 21937 21940 21941     9 
21934 21937 21940 21942     9 
21934 21937 21940 21943     9 
21938 21937 21940 21941     9 
21938 21937 21940 21942     9 
21938 21937 21940 21943     9 
21939 21937 21940 21941     9 
21939 21937 21940 21942     9 
21939 21937 21940 21943     9 
21937 21940 21943 21944     9 
21937 21940 21943 21945     9 
21937 21940 21943 21946     9 
21941 21940 21943 21944     9 
21941 21940 21943 21945     9 
21941 21940 21943 21946     9 
21942 21940 21943 21944     9 
21942 21940 21943 21945     9 
21942 21940 21943 21946     9 
21940 21943 21946 21947     9 
21940 21943 21946 21948     9 
21940 21943 21946 21949     9 
21944 21943 21946 21947     9 
21944 21943 21946 21948     9 
21944 21943 21946 21949     9 
21945 21943 21946 21947     9 
21945 21943 21946 21948     9 
21945 21943 21946 21949     9 
21943 21946 21949 21950     9 
21943 21946 21949 21951     9 
21943 21946 21949 21952     9 
21947 21946 21949 21950     9 
21947 21946 21949 21951     9 
21947 21946 21949 21952     9 
21948 21946 21949 21950     9 
21948 21946 21949 21951     9 
21948 21946 21949 21952     9 
21946 21949 21952 21953     9 
21946 21949 21952 21954     9 
21946 21949 21952 21955     9 
21950 21949 21952 21953     9 
21950 21949 21952 21954     9 
21950 21949 21952 21955     9 
21951 21949 21952 21953     9 
21951 21949 21952 21954     9 
21951 21949 21952 21955     9 
21949 21952 21955 21956     9 
21949 21952 21955 21957     9 
21949 21952 21955 21958     9 
21953 21952 21955 21956     9 
21953 21952 21955 21957     9 
21953 21952 21955 21958     9 
21954 21952 21955 21956     9 
21954 21952 21955 21957     9 
21954 21952 21955 21958     9 
21952 21955 21958 21959     9 
21952 21955 21958 21960     9 
21952 21955 21958 21961     9 
21956 21955 21958 21959     9 
21956 21955 21958 21960     9 
21956 21955 21958 21961     9 
21957 21955 21958 21959     9 
21957 21955 21958 21960     9 
21957 21955 21958 21961     9 
21955 21958 21961 21962     9 
21955 21958 21961 21963     9 
21955 21958 21961 21964     9 
21959 21958 21961 21962     9 
21959 21958 21961 21963     9 
21959 21958 21961 21964     9 
21960 21958 21961 21962     9 
21960 21958 21961 21963     9 
21960 21958 21961 21964     9 
21958 21961 21964 21965     9 
21958 21961 21964 21966     9 
21958 21961 21964 21967     9 
21962 21961 21964 21965     9 
21962 21961 21964 21966     9 
21962 21961 21964 21967     9 
21963 21961 21964 21965     9 
21963 21961 21964 21966     9 
21963 21961 21964 21967     9 
21961 21964 21967 21968     9 
21961 21964 21967 21969     9 
21961 21964 21967 21970     9 
21965 21964 21967 21968     9 
21965 21964 21967 21969     9 
21965 21964 21967 21970     9 
21966 21964 21967 21968     9 
21966 21964 21967 21969     9 
21966 21964 21967 21970     9 
21964 21967 21970 21971     9 
21964 21967 21970 21972     9 
21964 21967 21970 21973     9 
21968 21967 21970 21971     9 
21968 21967 21970 21972     9 
21968 21967 21970 21973     9 
21969 21967 21970 21971     9 
21969 21967 21970 21972     9 
21969 21967 21970 21973     9 
21967 21970 21973 21974     9 
21967 21970 21973 21975     9 
21967 21970 21973 21976     9 
21971 21970 21973 21974     9 
21971 21970 21973 21975     9 
21971 21970 21973 21976     9 
21972 21970 21973 21974     9 
21972 21970 21973 21975     9 
21972 21970 21973 21976     9 
21981 21977 21978 21979     9 
21981 21977 21978 21980     9 
21981 21977 21978 21993     9 
21985 21977 21978 21979     9 
21985 21977 21978 21980     9 
21985 21977 21978 21993     9 
21989 21977 21978 21979     9 
21989 21977 21978 21980     9 
21989 21977 21978 21993     9 
21978 21977 21981 21982     9 
21978 21977 21981 21983     9 
21978 21977 21981 21984     9 
21985 21977 21981 21982     9 
21985 21977 21981 21983     9 
21985 21977 21981 21984     9 
21989 21977 21981 21982     9 
21989 21977 21981 21983     9 
21989 21977 21981 21984     9 
21978 21977 21985 21986     9 
21978 21977 21985 21987     9 
21978 21977 21985 21988     9 
21981 21977 21985 21986     9 
21981 21977 21985 21987     9 
21981 21977 21985 21988     9 
21989 21977 21985 21986     9 
21989 21977 21985 21987     9 
21989 21977 21985 21988     9 
21978 21977 21989 21990     9 
21978 21977 21989 21991     9 
21978 21977 21989 21992     9 
21981 21977 21989 21990     9 
21981 21977 21989 21991     9 
21981 21977 21989 21992     9 
21985 21977 21989 21990     9 
21985 21977 21989 21991     9 
21985 21977 21989 21992     9 
21977 21978 21993 21994     9 
21977 21978 21993 21995     9 
21977 21978 21993 21999     9 
21979 21978 21993 21994     9 
21979 21978 21993 21995     9 
21979 21978 21993 21999     9 
21980 21978 21993 21994     9 
21980 21978 21993 21995     9 
21980 21978 21993 21999     9 
21978 21993 21999 21996     9 
21994 21993 21999 21996     9 
21995 21993 21999 21996     9 
21997 21996 21999 21993     9 
21998 21996 21999 21993     9 
22000 21996 21999 21993     9 
21997 21996 22000 22001     9 
21998 21996 22000 22001     9 
21999 21996 22000 22001     9 
21996 22000 22001 22002     9 
21996 22000 22001 22003     9 
21996 22000 22001 22004     9 
22000 22001 22004 22005     9 
22000 22001 22004 22006     9 
22000 22001 22004 22012     9 
22002 22001 22004 22005     9 
22002 22001 22004 22006     9 
22002 22001 22004 22012     9 
22003 22001 22004 22005     9 
22003 22001 22004 22006     9 
22003 22001 22004 22012     9 
22001 22004 22006 22007     9 
22005 22004 22006 22007     9 
22012 22004 22006 22007     9 
22001 22004 22012 22013     9 
22001 22004 22012 22014     9 
22001 22004 22012 22015     9 
22005 22004 22012 22013     9 
22005 22004 22012 22014     9 
22005 22004 22012 22015     9 
22006 22004 22012 22013     9 
22006 22004 22012 22014     9 
22006 22004 22012 22015     9 
22004 22006 22007 22008     9 
22004 22006 22007 22009     9 
22006 22007 22009 22010     9 
22006 22007 22009 22011     9 
22006 22007 22009 22021     9 
22008 22007 22009 22010     9 
22008 22007 22009 22011     9 
22008 22007 22009 22021     9 
22007 22009 22021 22022     9 
22007 22009 22021 22023     9 
22007 22009 22021 22024     9 
22010 22009 22021 22022     9 
22010 22009 22021 22023     9 
22010 22009 22021 22024     9 
22011 22009 22021 22022     9 
22011 22009 22021 22023     9 
22011 22009 22021 22024     9 
22004 22012 22015 22016     9 
22013 22012 22015 22016     9 
22014 22012 22015 22016     9 
22012 22015 22016 22017     9 
22012 22015 22016 22018     9 
22015 22016 22018 22019     9 
22015 22016 22018 22020     9 
22015 22016 22018 22068     9 
22017 22016 22018 22019     9 
22017 22016 22018 22020     9 
22017 22016 22018 22068     9 
22016 22018 22068 22069     9 
22016 22018 22068 22070     9 
22016 22018 22068 22071     9 
22019 22018 22068 22069     9 
22019 22018 22068 22070     9 
22019 22018 22068 22071     9 
22020 22018 22068 22069     9 
22020 22018 22068 22070     9 
22020 22018 22068 22071     9 
22009 22021 22024 22025     9 
22009 22021 22024 22026     9 
22009 22021 22024 22027     9 
22022 22021 22024 22025     9 
22022 22021 22024 22026     9 
22022 22021 22024 22027     9 
22023 22021 22024 22025     9 
22023 22021 22024 22026     9 
22023 22021 22024 22027     9 
22021 22024 22027 22028     9 
22021 22024 22027 22029     9 
22021 22024 22027 22030     9 
22025 22024 22027 22028     9 
22025 22024 22027 22029     9 
22025 22024 22027 22030     9 
22026 22024 22027 22028     9 
22026 22024 22027 22029     9 
22026 22024 22027 22030     9 
22024 22027 22030 22031     9 
22024 22027 22030 22032     9 
22024 22027 22030 22033     9 
22028 22027 22030 22031     9 
22028 22027 22030 22032     9 
22028 22027 22030 22033     9 
22029 22027 22030 22031     9 
22029 22027 22030 22032     9 
22029 22027 22030 22033     9 
22027 22030 22033 22034     9 
22027 22030 22033 22035     9 
22027 22030 22033 22036     9 
22031 22030 22033 22034     9 
22031 22030 22033 22035     9 
22031 22030 22033 22036     9 
22032 22030 22033 22034     9 
22032 22030 22033 22035     9 
22032 22030 22033 22036     9 
22030 22033 22036 22037     9 
22030 22033 22036 22038     9 
22030 22033 22036 22039     9 
22034 22033 22036 22037     9 
22034 22033 22036 22038     9 
22034 22033 22036 22039     9 
22035 22033 22036 22037     9 
22035 22033 22036 22038     9 
22035 22033 22036 22039     9 
22033 22036 22039 22040     9 
22033 22036 22039 22041     9 
22037 22036 22039 22040     9 
22037 22036 22039 22041     9 
22038 22036 22039 22040     9 
22038 22036 22039 22041     9 
22036 22039 22041 22042     9 
22036 22039 22041 22043     9 
22040 22039 22041 22042     9 
22040 22039 22041 22043     9 
22039 22041 22043 22044     9 
22039 22041 22043 22045     9 
22039 22041 22043 22046     9 
22042 22041 22043 22044     9 
22042 22041 22043 22045     9 
22042 22041 22043 22046     9 
22041 22043 22046 22047     9 
22041 22043 22046 22048     9 
22041 22043 22046 22049     9 
22044 22043 22046 22047     9 
22044 22043 22046 22048     9 
22044 22043 22046 22049     9 
22045 22043 22046 22047     9 
22045 22043 22046 22048     9 
22045 22043 22046 22049     9 
22043 22046 22049 22050     9 
22043 22046 22049 22051     9 
22043 22046 22049 22052     9 
22047 22046 22049 22050     9 
22047 22046 22049 22051     9 
22047 22046 22049 22052     9 
22048 22046 22049 22050     9 
22048 22046 22049 22051     9 
22048 22046 22049 22052     9 
22046 22049 22052 22053     9 
22046 22049 22052 22054     9 
22046 22049 22052 22055     9 
22050 22049 22052 22053     9 
22050 22049 22052 22054     9 
22050 22049 22052 22055     9 
22051 22049 22052 22053     9 
22051 22049 22052 22054     9 
22051 22049 22052 22055     9 
22049 22052 22055 22056     9 
22049 22052 22055 22057     9 
22049 22052 22055 22058     9 
22053 22052 22055 22056     9 
22053 22052 22055 22057     9 
22053 22052 22055 22058     9 
22054 22052 22055 22056     9 
22054 22052 22055 22057     9 
22054 22052 22055 22058     9 
22052 22055 22058 22059     9 
22052 22055 22058 22060     9 
22052 22055 22058 22061     9 
22056 22055 22058 22059     9 
22056 22055 22058 22060     9 
22056 22055 22058 22061     9 
22057 22055 22058 22059     9 
22057 22055 22058 22060     9 
22057 22055 22058 22061     9 
22055 22058 22061 22062     9 
22055 22058 22061 22063     9 
22055 22058 22061 22064     9 
22059 22058 22061 22062     9 
22059 22058 22061 22063     9 
22059 22058 22061 22064     9 
22060 22058 22061 22062     9 
22060 22058 22061 22063     9 
22060 22058 22061 22064     9 
22058 22061 22064 22065     9 
22058 22061 22064 22066     9 
22058 22061 22064 22067     9 
22062 22061 22064 22065     9 
22062 22061 22064 22066     9 
22062 22061 22064 22067     9 
22063 22061 22064 22065     9 
22063 22061 22064 22066     9 
22063 22061 22064 22067     9 
22018 22068 22071 22072     9 
22018 22068 22071 22073     9 
22018 22068 22071 22074     9 
22069 22068 22071 22072     9 
22069 22068 22071 22073     9 
22069 22068 22071 22074     9 
22070 22068 22071 22072     9 
22070 22068 22071 22073     9 
22070 22068 22071 22074     9 
22068 22071 22074 22075     9 
22068 22071 22074 22076     9 
22068 22071 22074 22077     9 
22072 22071 22074 22075     9 
22072 22071 22074 22076     9 
22072 22071 22074 22077     9 
22073 22071 22074 22075     9 
22073 22071 22074 22076     9 
22073 22071 22074 22077     9 
22071 22074 22077 22078     9 
22071 22074 22077 22079     9 
22071 22074 22077 22080     9 
22075 22074 22077 22078     9 
22075 22074 22077 22079     9 
22075 22074 22077 22080     9 
22076 22074 22077 22078     9 
22076 22074 22077 22079     9 
22076 22074 22077 22080     9 
22074 22077 22080 22081     9 
22074 22077 22080 22082     9 
22074 22077 22080 22083     9 
22078 22077 22080 22081     9 
22078 22077 22080 22082     9 
22078 22077 22080 22083     9 
22079 22077 22080 22081     9 
22079 22077 22080 22082     9 
22079 22077 22080 22083     9 
22077 22080 22083 22084     9 
22077 22080 22083 22085     9 
22077 22080 22083 22086     9 
22081 22080 22083 22084     9 
22081 22080 22083 22085     9 
22081 22080 22083 22086     9 
22082 22080 22083 22084     9 
22082 22080 22083 22085     9 
22082 22080 22083 22086     9 
22080 22083 22086 22087     9 
22080 22083 22086 22088     9 
22080 22083 22086 22089     9 
22084 22083 22086 22087     9 
22084 22083 22086 22088     9 
22084 22083 22086 22089     9 
22085 22083 22086 22087     9 
22085 22083 22086 22088     9 
22085 22083 22086 22089     9 
22083 22086 22089 22090     9 
22083 22086 22089 22091     9 
22083 22086 22089 22092     9 
22087 22086 22089 22090     9 
22087 22086 22089 22091     9 
22087 22086 22089 22092     9 
22088 22086 22089 22090     9 
22088 22086 22089 22091     9 
22088 22086 22089 22092     9 
22086 22089 22092 22093     9 
22086 22089 22092 22094     9 
22086 22089 22092 22095     9 
22090 22089 22092 22093     9 
22090 22089 22092 22094     9 
22090 22089 22092 22095     9 
22091 22089 22092 22093     9 
22091 22089 22092 22094     9 
22091 22089 22092 22095     9 
22089 22092 22095 22096     9 
22089 22092 22095 22097     9 
22089 22092 22095 22098     9 
22093 22092 22095 22096     9 
22093 22092 22095 22097     9 
22093 22092 22095 22098     9 
22094 22092 22095 22096     9 
22094 22092 22095 22097     9 
22094 22092 22095 22098     9 
22092 22095 22098 22099     9 
22092 22095 22098 22100     9 
22092 22095 22098 22101     9 
22096 22095 22098 22099     9 
22096 22095 22098 22100     9 
22096 22095 22098 22101     9 
22097 22095 22098 22099     9 
22097 22095 22098 22100     9 
22097 22095 22098 22101     9 
22095 22098 22101 22102     9 
22095 22098 22101 22103     9 
22095 22098 22101 22104     9 
22099 22098 22101 22102     9 
22099 22098 22101 22103     9 
22099 22098 22101 22104     9 
22100 22098 22101 22102     9 
22100 22098 22101 22103     9 
22100 22098 22101 22104     9 
22098 22101 22104 22105     9 
22098 22101 22104 22106     9 
22098 22101 22104 22107     9 
22102 22101 22104 22105     9 
22102 22101 22104 22106     9 
22102 22101 22104 22107     9 
22103 22101 22104 22105     9 
22103 22101 22104 22106     9 
22103 22101 22104 22107     9 
22101 22104 22107 22108     9 
22101 22104 22107 22109     9 
22101 22104 22107 22110     9 
22105 22104 22107 22108     9 
22105 22104 22107 22109     9 
22105 22104 22107 22110     9 
22106 22104 22107 22108     9 
22106 22104 22107 22109     9 
22106 22104 22107 22110     9 
22115 22111 22112 22113     9 
22115 22111 22112 22114     9 
22115 22111 22112 22127     9 
22119 22111 22112 22113     9 
22119 22111 22112 22114     9 
22119 22111 22112 22127     9 
22123 22111 22112 22113     9 
22123 22111 22112 22114     9 
22123 22111 22112 22127     9 
22112 22111 22115 22116     9 
22112 22111 22115 22117     9 
22112 22111 22115 22118     9 
22119 22111 22115 22116     9 
22119 22111 22115 22117     9 
22119 22111 22115 22118     9 
22123 22111 22115 22116     9 
22123 22111 22115 22117     9 
22123 22111 22115 22118     9 
22112 22111 22119 22120     9 
22112 22111 22119 22121     9 
22112 22111 22119 22122     9 
22115 22111 22119 22120     9 
22115 22111 22119 22121     9 
22115 22111 22119 22122     9 
22123 22111 22119 22120     9 
22123 22111 22119 22121     9 
22123 22111 22119 22122     9 
22112 22111 22123 22124     9 
22112 22111 22123 22125     9 
22112 22111 22123 22126     9 
22115 22111 22123 22124     9 
22115 22111 22123 22125     9 
22115 22111 22123 22126     9 
22119 22111 22123 22124     9 
22119 22111 22123 22125     9 
22119 22111 22123 22126     9 
22111 22112 22127 22128     9 
22111 22112 22127 22129     9 
22111 22112 22127 22133     9 
22113 22112 22127 22128     9 
22113 22112 22127 22129     9 
22113 22112 22127 22133     9 
22114 22112 22127 22128     9 
22114 22112 22127 22129     9 
22114 22112 22127 22133     9 
22112 22127 22133 22130     9 
22128 22127 22133 22130     9 
22129 22127 22133 22130     9 
22131 22130 22133 22127     9 
22132 22130 22133 22127     9 
22134 22130 22133 22127     9 
22131 22130 22134 22135     9 
22132 22130 22134 22135     9 
22133 22130 22134 22135     9 
22130 22134 22135 22136     9 
22130 22134 22135 22137     9 
22130 22134 22135 22138     9 
22134 22135 22138 22139     9 
22134 22135 22138 22140     9 
22134 22135 22138 22146     9 
22136 22135 22138 22139     9 
22136 22135 22138 22140     9 
22136 22135 22138 22146     9 
22137 22135 22138 22139     9 
22137 22135 22138 22140     9 
22137 22135 22138 22146     9 
22135 22138 22140 22141     9 
22139 22138 22140 22141     9 
22146 22138 22140 22141     9 
22135 22138 22146 22147     9 
22135 22138 22146 22148     9 
22135 22138 22146 22149     9 
22139 22138 22146 22147     9 
22139 22138 22146 22148     9 
22139 22138 22146 22149     9 
22140 22138 22146 22147     9 
22140 22138 22146 22148     9 
22140 22138 22146 22149     9 
22138 22140 22141 22142     9 
22138 22140 22141 22143     9 
22140 22141 22143 22144     9 
22140 22141 22143 22145     9 
22140 22141 22143 22155     9 
22142 22141 22143 22144     9 
22142 22141 22143 22145     9 
22142 22141 22143 22155     9 
22141 22143 22155 22156     9 
22141 22143 22155 22157     9 
22141 22143 22155 22158     9 
22144 22143 22155 22156     9 
22144 22143 22155 22157     9 
22144 22143 22155 22158     9 
22145 22143 22155 22156     9 
22145 22143 22155 22157     9 
22145 22143 22155 22158     9 
22138 22146 22149 22150     9 
22147 22146 22149 22150     9 
22148 22146 22149 22150     9 
22146 22149 22150 22151     9 
22146 22149 22150 22152     9 
22149 22150 22152 22153     9 
22149 22150 22152 22154     9 
22149 22150 22152 22202     9 
22151 22150 22152 22153     9 
22151 22150 22152 22154     9 
22151 22150 22152 22202     9 
22150 22152 22202 22203     9 
22150 22152 22202 22204     9 
22150 22152 22202 22205     9 
22153 22152 22202 22203     9 
22153 22152 22202 22204     9 
22153 22152 22202 22205     9 
22154 22152 22202 22203     9 
22154 22152 22202 22204     9 
22154 22152 22202 22205     9 
22143 22155 22158 22159     9 
22143 22155 22158 22160     9 
22143 22155 22158 22161     9 
22156 22155 22158 22159     9 
22156 22155 22158 22160     9 
22156 22155 22158 22161     9 
22157 22155 22158 22159     9 
22157 22155 22158 22160     9 
22157 22155 22158 22161     9 
22155 22158 22161 22162     9 
22155 22158 22161 22163     9 
22155 22158 22161 22164     9 
22159 22158 22161 22162     9 
22159 22158 22161 22163     9 
22159 22158 22161 22164     9 
22160 22158 22161 22162     9 
22160 22158 22161 22163     9 
22160 22158 22161 22164     9 
22158 22161 22164 22165     9 
22158 22161 22164 22166     9 
22158 22161 22164 22167     9 
22162 22161 22164 22165     9 
22162 22161 22164 22166     9 
22162 22161 22164 22167     9 
22163 22161 22164 22165     9 
22163 22161 22164 22166     9 
22163 22161 22164 22167     9 
22161 22164 22167 22168     9 
22161 22164 22167 22169     9 
22161 22164 22167 22170     9 
22165 22164 22167 22168     9 
22165 22164 22167 22169     9 
22165 22164 22167 22170     9 
22166 22164 22167 22168     9 
22166 22164 22167 22169     9 
22166 22164 22167 22170     9 
22164 22167 22170 22171     9 
22164 22167 22170 22172     9 
22164 22167 22170 22173     9 
22168 22167 22170 22171     9 
22168 22167 22170 22172     9 
22168 22167 22170 22173     9 
22169 22167 22170 22171     9 
22169 22167 22170 22172     9 
22169 22167 22170 22173     9 
22167 22170 22173 22174     9 
22167 22170 22173 22175     9 
22171 22170 22173 22174     9 
22171 22170 22173 22175     9 
22172 22170 22173 22174     9 
22172 22170 22173 22175     9 
22170 22173 22175 22176     9 
22170 22173 22175 22177     9 
22174 22173 22175 22176     9 
22174 22173 22175 22177     9 
22173 22175 22177 22178     9 
22173 22175 22177 22179     9 
22173 22175 22177 22180     9 
22176 22175 22177 22178     9 
22176 22175 22177 22179     9 
22176 22175 22177 22180     9 
22175 22177 22180 22181     9 
22175 22177 22180 22182     9 
22175 22177 22180 22183     9 
22178 22177 22180 22181     9 
22178 22177 22180 22182     9 
22178 22177 22180 22183     9 
22179 22177 22180 22181     9 
22179 22177 22180 22182     9 
22179 22177 22180 22183     9 
22177 22180 22183 22184     9 
22177 22180 22183 22185     9 
22177 22180 22183 22186     9 
22181 22180 22183 22184     9 
22181 22180 22183 22185     9 
22181 22180 22183 22186     9 
22182 22180 22183 22184     9 
22182 22180 22183 22185     9 
22182 22180 22183 22186     9 
22180 22183 22186 22187     9 
22180 22183 22186 22188     9 
22180 22183 22186 22189     9 
22184 22183 22186 22187     9 
22184 22183 22186 22188     9 
22184 22183 22186 22189     9 
22185 22183 22186 22187     9 
22185 22183 22186 22188     9 
22185 22183 22186 22189     9 
22183 22186 22189 22190     9 
22183 22186 22189 22191     9 
22183 22186 22189 22192     9 
22187 22186 22189 22190     9 
22187 22186 22189 22191     9 
22187 22186 22189 22192     9 
22188 22186 22189 22190     9 
22188 22186 22189 22191     9 
22188 22186 22189 22192     9 
22186 22189 22192 22193     9 
22186 22189 22192 22194     9 
22186 22189 22192 22195     9 
22190 22189 22192 22193     9 
22190 22189 22192 22194     9 
22190 22189 22192 22195     9 
22191 22189 22192 22193     9 
22191 22189 22192 22194     9 
22191 22189 22192 22195     9 
22189 22192 22195 22196     9 
22189 22192 22195 22197     9 
22189 22192 22195 22198     9 
22193 22192 22195 22196     9 
22193 22192 22195 22197     9 
22193 22192 22195 22198     9 
22194 22192 22195 22196     9 
22194 22192 22195 22197     9 
22194 22192 22195 22198     9 
22192 22195 22198 22199     9 
22192 22195 22198 22200     9 
22192 22195 22198 22201     9 
22196 22195 22198 22199     9 
22196 22195 22198 22200     9 
22196 22195 22198 22201     9 
22197 22195 22198 22199     9 
22197 22195 22198 22200     9 
22197 22195 22198 22201     9 
22152 22202 22205 22206     9 
22152 22202 22205 22207     9 
22152 22202 22205 22208     9 
22203 22202 22205 22206     9 
22203 22202 22205 22207     9 
22203 22202 22205 22208     9 
22204 22202 22205 22206     9 
22204 22202 22205 22207     9 
22204 22202 22205 22208     9 
22202 22205 22208 22209     9 
22202 22205 22208 22210     9 
22202 22205 22208 22211     9 
22206 22205 22208 22209     9 
22206 22205 22208 22210     9 
22206 22205 22208 22211     9 
22207 22205 22208 22209     9 
22207 22205 22208 22210     9 
22207 22205 22208 22211     9 
22205 22208 22211 22212     9 
22205 22208 22211 22213     9 
22205 22208 22211 22214     9 
22209 22208 22211 22212     9 
22209 22208 22211 22213     9 
22209 22208 22211 22214     9 
22210 22208 22211 22212     9 
22210 22208 22211 22213     9 
22210 22208 22211 22214     9 
22208 22211 22214 22215     9 
22208 22211 22214 22216     9 
22208 22211 22214 22217     9 
22212 22211 22214 22215     9 
22212 22211 22214 22216     9 
22212 22211 22214 22217     9 
22213 22211 22214 22215     9 
22213 22211 22214 22216     9 
22213 22211 22214 22217     9 
22211 22214 22217 22218     9 
22211 22214 22217 22219     9 
22211 22214 22217 22220     9 
22215 22214 22217 22218     9 
22215 22214 22217 22219     9 
22215 22214 22217 22220     9 
22216 22214 22217 22218     9 
22216 22214 22217 22219     9 
22216 22214 22217 22220     9 
22214 22217 22220 22221     9 
22214 22217 22220 22222     9 
22214 22217 22220 22223     9 
22218 22217 22220 22221     9 
22218 22217 22220 22222     9 
22218 22217 22220 22223     9 
22219 22217 22220 22221     9 
22219 22217 22220 22222     9 
22219 22217 22220 22223     9 
22217 22220 22223 22224     9 
22217 22220 22223 22225     9 
22217 22220 22223 22226     9 
22221 22220 22223 22224     9 
22221 22220 22223 22225     9 
22221 22220 22223 22226     9 
22222 22220 22223 22224     9 
22222 22220 22223 22225     9 
22222 22220 22223 22226     9 
22220 22223 22226 22227     9 
22220 22223 22226 22228     9 
22220 22223 22226 22229     9 
22224 22223 22226 22227     9 
22224 22223 22226 22228     9 
22224 22223 22226 22229     9 
22225 22223 22226 22227     9 
22225 22223 22226 22228     9 
22225 22223 22226 22229     9 
22223 22226 22229 22230     9 
22223 22226 22229 22231     9 
22223 22226 22229 22232     9 
22227 22226 22229 22230     9 
22227 22226 22229 22231     9 
22227 22226 22229 22232     9 
22228 22226 22229 22230     9 
22228 22226 22229 22231     9 
22228 22226 22229 22232     9 
22226 22229 22232 22233     9 
22226 22229 22232 22234     9 
22226 22229 22232 22235     9 
22230 22229 22232 22233     9 
22230 22229 22232 22234     9 
22230 22229 22232 22235     9 
22231 22229 22232 22233     9 
22231 22229 22232 22234     9 
22231 22229 22232 22235     9 
22229 22232 22235 22236     9 
22229 22232 22235 22237     9 
22229 22232 22235 22238     9 
22233 22232 22235 22236     9 
22233 22232 22235 22237     9 
22233 22232 22235 22238     9 
22234 22232 22235 22236     9 
22234 22232 22235 22237     9 
22234 22232 22235 22238     9 
22232 22235 22238 22239     9 
22232 22235 22238 22240     9 
22232 22235 22238 22241     9 
22236 22235 22238 22239     9 
22236 22235 22238 22240     9 
22236 22235 22238 22241     9 
22237 22235 22238 22239     9 
22237 22235 22238 22240     9 
22237 22235 22238 22241     9 
22235 22238 22241 22242     9 
22235 22238 22241 22243     9 
22235 22238 22241 22244     9 
22239 22238 22241 22242     9 
22239 22238 22241 22243     9 
22239 22238 22241 22244     9 
22240 22238 22241 22242     9 
22240 22238 22241 22243     9 
22240 22238 22241 22244     9 
22249 22245 22246 22247     9 
22249 22245 22246 22248     9 
22249 22245 22246 22261     9 
22253 22245 22246 22247     9 
22253 22245 22246 22248     9 
22253 22245 22246 22261     9 
22257 22245 22246 22247     9 
22257 22245 22246 22248     9 
22257 22245 22246 22261     9 
22246 22245 22249 22250     9 
22246 22245 22249 22251     9 
22246 22245 22249 22252     9 
22253 22245 22249 22250     9 
22253 22245 22249 22251     9 
22253 22245 22249 22252     9 
22257 22245 22249 22250     9 
22257 22245 22249 22251     9 
22257 22245 22249 22252     9 
22246 22245 22253 22254     9 
22246 22245 22253 22255     9 
22246 22245 22253 22256     9 
22249 22245 22253 22254     9 
22249 22245 22253 22255     9 
22249 22245 22253 22256     9 
22257 22245 22253 22254     9 
22257 22245 22253 22255     9 
22257 22245 22253 22256     9 
22246 22245 22257 22258     9 
22246 22245 22257 22259     9 
22246 22245 22257 22260     9 
22249 22245 22257 22258     9 
22249 22245 22257 22259     9 
22249 22245 22257 22260     9 
22253 22245 22257 22258     9 
22253 22245 22257 22259     9 
22253 22245 22257 22260     9 
22245 22246 22261 22262     9 
22245 22246 22261 22263     9 
22245 22246 22261 22267     9 
22247 22246 22261 22262     9 
22247 22246 22261 22263     9 
22247 22246 22261 22267     9 
22248 22246 22261 22262     9 
22248 22246 22261 22263     9 
22248 22246 22261 22267     9 
22246 22261 22267 22264     9 
22262 22261 22267 22264     9 
22263 22261 22267 22264     9 
22265 22264 22267 22261     9 
22266 22264 22267 22261     9 
22268 22264 22267 22261     9 
22265 22264 22268 22269     9 
22266 22264 22268 22269     9 
22267 22264 22268 22269     9 
22264 22268 22269 22270     9 
22264 22268 22269 22271     9 
22264 22268 22269 22272     9 
22268 22269 22272 22273     9 
22268 22269 22272 22274     9 
22268 22269 22272 22280     9 
22270 22269 22272 22273     9 
22270 22269 22272 22274     9 
22270 22269 22272 22280     9 
22271 22269 22272 22273     9 
22271 22269 22272 22274     9 
22271 22269 22272 22280     9 
22269 22272 22274 22275     9 
22273 22272 22274 22275     9 
22280 22272 22274 22275     9 
22269 22272 22280 22281     9 
22269 22272 22280 22282     9 
22269 22272 22280 22283     9 
22273 22272 22280 22281     9 
22273 22272 22280 22282     9 
22273 22272 22280 22283     9 
22274 22272 22280 22281     9 
22274 22272 22280 22282     9 
22274 22272 22280 22283     9 
22272 22274 22275 22276     9 
22272 22274 22275 22277     9 
22274 22275 22277 22278     9 
22274 22275 22277 22279     9 
22274 22275 22277 22289     9 
22276 22275 22277 22278     9 
22276 22275 22277 22279     9 
22276 22275 22277 22289     9 
22275 22277 22289 22290     9 
22275 22277 22289 22291     9 
22275 22277 22289 22292     9 
22278 22277 22289 22290     9 
22278 22277 22289 22291     9 
22278 22277 22289 22292     9 
22279 22277 22289 22290     9 
22279 22277 22289 22291     9 
22279 22277 22289 22292     9 
22272 22280 22283 22284     9 
22281 22280 22283 22284     9 
22282 22280 22283 22284     9 
22280 22283 22284 22285     9 
22280 22283 22284 22286     9 
22283 22284 22286 22287     9 
22283 22284 22286 22288     9 
22283 22284 22286 22336     9 
22285 22284 22286 22287     9 
22285 22284 22286 22288     9 
22285 22284 22286 22336     9 
22284 22286 22336 22337     9 
22284 22286 22336 22338     9 
22284 22286 22336 22339     9 
22287 22286 22336 22337     9 
22287 22286 22336 22338     9 
22287 22286 22336 22339     9 
22288 22286 22336 22337     9 
22288 22286 22336 22338     9 
22288 22286 22336 22339     9 
22277 22289 22292 22293     9 
22277 22289 22292 22294     9 
22277 22289 22292 22295     9 
22290 22289 22292 22293     9 
22290 22289 22292 22294     9 
22290 22289 22292 22295     9 
22291 22289 22292 22293     9 
22291 22289 22292 22294     9 
22291 22289 22292 22295     9 
22289 22292 22295 22296     9 
22289 22292 22295 22297     9 
22289 22292 22295 22298     9 
22293 22292 22295 22296     9 
22293 22292 22295 22297     9 
22293 22292 22295 22298     9 
22294 22292 22295 22296     9 
22294 22292 22295 22297     9 
22294 22292 22295 22298     9 
22292 22295 22298 22299     9 
22292 22295 22298 22300     9 
22292 22295 22298 22301     9 
22296 22295 22298 22299     9 
22296 22295 22298 22300     9 
22296 22295 22298 22301     9 
22297 22295 22298 22299     9 
22297 22295 22298 22300     9 
22297 22295 22298 22301     9 
22295 22298 22301 22302     9 
22295 22298 22301 22303     9 
22295 22298 22301 22304     9 
22299 22298 22301 22302     9 
22299 22298 22301 22303     9 
22299 22298 22301 22304     9 
22300 22298 22301 22302     9 
22300 22298 22301 22303     9 
22300 22298 22301 22304     9 
22298 22301 22304 22305     9 
22298 22301 22304 22306     9 
22298 22301 22304 22307     9 
22302 22301 22304 22305     9 
22302 22301 22304 22306     9 
22302 22301 22304 22307     9 
22303 22301 22304 22305     9 
22303 22301 22304 22306     9 
22303 22301 22304 22307     9 
22301 22304 22307 22308     9 
22301 22304 22307 22309     9 
22305 22304 22307 22308     9 
22305 22304 22307 22309     9 
22306 22304 22307 22308     9 
22306 22304 22307 22309     9 
22304 22307 22309 22310     9 
22304 22307 22309 22311     9 
22308 22307 22309 22310     9 
22308 22307 22309 22311     9 
22307 22309 22311 22312     9 
22307 22309 22311 22313     9 
22307 22309 22311 22314     9 
22310 22309 22311 22312     9 
22310 22309 22311 22313     9 
22310 22309 22311 22314     9 
22309 22311 22314 22315     9 
22309 22311 22314 22316     9 
22309 22311 22314 22317     9 
22312 22311 22314 22315     9 
22312 22311 22314 22316     9 
22312 22311 22314 22317     9 
22313 22311 22314 22315     9 
22313 22311 22314 22316     9 
22313 22311 22314 22317     9 
22311 22314 22317 22318     9 
22311 22314 22317 22319     9 
22311 22314 22317 22320     9 
22315 22314 22317 22318     9 
22315 22314 22317 22319     9 
22315 22314 22317 22320     9 
22316 22314 22317 22318     9 
22316 22314 22317 22319     9 
22316 22314 22317 22320     9 
22314 22317 22320 22321     9 
22314 22317 22320 22322     9 
22314 22317 22320 22323     9 
22318 22317 22320 22321     9 
22318 22317 22320 22322     9 
22318 22317 22320 22323     9 
22319 22317 22320 22321     9 
22319 22317 22320 22322     9 
22319 22317 22320 22323     9 
22317 22320 22323 22324     9 
22317 22320 22323 22325     9 
22317 22320 22323 22326     9 
22321 22320 22323 22324     9 
22321 22320 22323 22325     9 
22321 22320 22323 22326     9 
22322 22320 22323 22324     9 
22322 22320 22323 22325     9 
22322 22320 22323 22326     9 
22320 22323 22326 22327     9 
22320 22323 22326 22328     9 
22320 22323 22326 22329     9 
22324 22323 22326 22327     9 
22324 22323 22326 22328     9 
22324 22323 22326 22329     9 
22325 22323 22326 22327     9 
22325 22323 22326 22328     9 
22325 22323 22326 22329     9 
22323 22326 22329 22330     9 
22323 22326 22329 22331     9 
22323 22326 22329 22332     9 
22327 22326 22329 22330     9 
22327 22326 22329 22331     9 
22327 22326 22329 22332     9 
22328 22326 22329 22330     9 
22328 22326 22329 22331     9 
22328 22326 22329 22332     9 
22326 22329 22332 22333     9 
22326 22329 22332 22334     9 
22326 22329 22332 22335     9 
22330 22329 22332 22333     9 
22330 22329 22332 22334     9 
22330 22329 22332 22335     9 
22331 22329 22332 22333     9 
22331 22329 22332 22334     9 
22331 22329 22332 22335     9 
22286 22336 22339 22340     9 
22286 22336 22339 22341     9 
22286 22336 22339 22342     9 
22337 22336 22339 22340     9 
22337 22336 22339 22341     9 
22337 22336 22339 22342     9 
22338 22336 22339 22340     9 
22338 22336 22339 22341     9 
22338 22336 22339 22342     9 
22336 22339 22342 22343     9 
22336 22339 22342 22344     9 
22336 22339 22342 22345     9 
22340 22339 22342 22343     9 
22340 22339 22342 22344     9 
22340 22339 22342 22345     9 
22341 22339 22342 22343     9 
22341 22339 22342 22344     9 
22341 22339 22342 22345     9 
22339 22342 22345 22346     9 
22339 22342 22345 22347     9 
22339 22342 22345 22348     9 
22343 22342 22345 22346     9 
22343 22342 22345 22347     9 
22343 22342 22345 22348     9 
22344 22342 22345 22346     9 
22344 22342 22345 22347     9 
22344 22342 22345 22348     9 
22342 22345 22348 22349     9 
22342 22345 22348 22350     9 
22342 22345 22348 22351     9 
22346 22345 22348 22349     9 
22346 22345 22348 22350     9 
22346 22345 22348 22351     9 
22347 22345 22348 22349     9 
22347 22345 22348 22350     9 
22347 22345 22348 22351     9 
22345 22348 22351 22352     9 
22345 22348 22351 22353     9 
22345 22348 22351 22354     9 
22349 22348 22351 22352     9 
22349 22348 22351 22353     9 
22349 22348 22351 22354     9 
22350 22348 22351 22352     9 
22350 22348 22351 22353     9 
22350 22348 22351 22354     9 
22348 22351 22354 22355     9 
22348 22351 22354 22356     9 
22348 22351 22354 22357     9 
22352 22351 22354 22355     9 
22352 22351 22354 22356     9 
22352 22351 22354 22357     9 
22353 22351 22354 22355     9 
22353 22351 22354 22356     9 
22353 22351 22354 22357     9 
22351 22354 22357 22358     9 
22351 22354 22357 22359     9 
22351 22354 22357 22360     9 
22355 22354 22357 22358     9 
22355 22354 22357 22359     9 
22355 22354 22357 22360     9 
22356 22354 22357 22358     9 
22356 22354 22357 22359     9 
22356 22354 22357 22360     9 
22354 22357 22360 22361     9 
22354 22357 22360 22362     9 
22354 22357 22360 22363     9 
22358 22357 22360 22361     9 
22358 22357 22360 22362     9 
22358 22357 22360 22363     9 
22359 22357 22360 22361     9 
22359 22357 22360 22362     9 
22359 22357 22360 22363     9 
22357 22360 22363 22364     9 
22357 22360 22363 22365     9 
22357 22360 22363 22366     9 
22361 22360 22363 22364     9 
22361 22360 22363 22365     9 
22361 22360 22363 22366     9 
22362 22360 22363 22364     9 
22362 22360 22363 22365     9 
22362 22360 22363 22366     9 
22360 22363 22366 22367     9 
22360 22363 22366 22368     9 
22360 22363 22366 22369     9 
22364 22363 22366 22367     9 
22364 22363 22366 22368     9 
22364 22363 22366 22369     9 
22365 22363 22366 22367     9 
22365 22363 22366 22368     9 
22365 22363 22366 22369     9 
22363 22366 22369 22370     9 
22363 22366 22369 22371     9 
22363 22366 22369 22372     9 
22367 22366 22369 22370     9 
22367 22366 22369 22371     9 
22367 22366 22369 22372     9 
22368 22366 22369 22370     9 
22368 22366 22369 22371     9 
22368 22366 22369 22372     9 
22366 22369 22372 22373     9 
22366 22369 22372 22374     9 
22366 22369 22372 22375     9 
22370 22369 22372 22373     9 
22370 22369 22372 22374     9 
22370 22369 22372 22375     9 
22371 22369 22372 22373     9 
22371 22369 22372 22374     9 
22371 22369 22372 22375     9 
22369 22372 22375 22376     9 
22369 22372 22375 22377     9 
22369 22372 22375 22378     9 
22373 22372 22375 22376     9 
22373 22372 22375 22377     9 
22373 22372 22375 22378     9 
22374 22372 22375 22376     9 
22374 22372 22375 22377     9 
22374 22372 22375 22378     9 
22383 22379 22380 22381     9 
22383 22379 22380 22382     9 
22383 22379 22380 22395     9 
22387 22379 22380 22381     9 
22387 22379 22380 22382     9 
22387 22379 22380 22395     9 
22391 22379 22380 22381     9 
22391 22379 22380 22382     9 
22391 22379 22380 22395     9 
22380 22379 22383 22384     9 
22380 22379 22383 22385     9 
22380 22379 22383 22386     9 
22387 22379 22383 22384     9 
22387 22379 22383 22385     9 
22387 22379 22383 22386     9 
22391 22379 22383 22384     9 
22391 22379 22383 22385     9 
22391 22379 22383 22386     9 
22380 22379 22387 22388     9 
22380 22379 22387 22389     9 
22380 22379 22387 22390     9 
22383 22379 22387 22388     9 
22383 22379 22387 22389     9 
22383 22379 22387 22390     9 
22391 22379 22387 22388     9 
22391 22379 22387 22389     9 
22391 22379 22387 22390     9 
22380 22379 22391 22392     9 
22380 22379 22391 22393     9 
22380 22379 22391 22394     9 
22383 22379 22391 22392     9 
22383 22379 22391 22393     9 
22383 22379 22391 22394     9 
22387 22379 22391 22392     9 
22387 22379 22391 22393     9 
22387 22379 22391 22394     9 
22379 22380 22395 22396     9 
22379 22380 22395 22397     9 
22379 22380 22395 22401     9 
22381 22380 22395 22396     9 
22381 22380 22395 22397     9 
22381 22380 22395 22401     9 
22382 22380 22395 22396     9 
22382 22380 22395 22397     9 
22382 22380 22395 22401     9 
22380 22395 22401 22398     9 
22396 22395 22401 22398     9 
22397 22395 22401 22398     9 
22399 22398 22401 22395     9 
22400 22398 22401 22395     9 
22402 22398 22401 22395     9 
22399 22398 22402 22403     9 
22400 22398 22402 22403     9 
22401 22398 22402 22403     9 
22398 22402 22403 22404     9 
22398 22402 22403 22405     9 
22398 22402 22403 22406     9 
22402 22403 22406 22407     9 
22402 22403 22406 22408     9 
22402 22403 22406 22414     9 
22404 22403 22406 22407     9 
22404 22403 22406 22408     9 
22404 22403 22406 22414     9 
22405 22403 22406 22407     9 
22405 22403 22406 22408     9 
22405 22403 22406 22414     9 
22403 22406 22408 22409     9 
22407 22406 22408 22409     9 
22414 22406 22408 22409     9 
22403 22406 22414 22415     9 
22403 22406 22414 22416     9 
22403 22406 22414 22417     9 
22407 22406 22414 22415     9 
22407 22406 22414 22416     9 
22407 22406 22414 22417     9 
22408 22406 22414 22415     9 
22408 22406 22414 22416     9 
22408 22406 22414 22417     9 
22406 22408 22409 22410     9 
22406 22408 22409 22411     9 
22408 22409 22411 22412     9 
22408 22409 22411 22413     9 
22408 22409 22411 22423     9 
22410 22409 22411 22412     9 
22410 22409 22411 22413     9 
22410 22409 22411 22423     9 
22409 22411 22423 22424     9 
22409 22411 22423 22425     9 
22409 22411 22423 22426     9 
22412 22411 22423 22424     9 
22412 22411 22423 22425     9 
22412 22411 22423 22426     9 
22413 22411 22423 22424     9 
22413 22411 22423 22425     9 
22413 22411 22423 22426     9 
22406 22414 22417 22418     9 
22415 22414 22417 22418     9 
22416 22414 22417 22418     9 
22414 22417 22418 22419     9 
22414 22417 22418 22420     9 
22417 22418 22420 22421     9 
22417 22418 22420 22422     9 
22417 22418 22420 22470     9 
22419 22418 22420 22421     9 
22419 22418 22420 22422     9 
22419 22418 22420 22470     9 
22418 22420 22470 22471     9 
22418 22420 22470 22472     9 
22418 22420 22470 22473     9 
22421 22420 22470 22471     9 
22421 22420 22470 22472     9 
22421 22420 22470 22473     9 
22422 22420 22470 22471     9 
22422 22420 22470 22472     9 
22422 22420 22470 22473     9 
22411 22423 22426 22427     9 
22411 22423 22426 22428     9 
22411 22423 22426 22429     9 
22424 22423 22426 22427     9 
22424 22423 22426 22428     9 
22424 22423 22426 22429     9 
22425 22423 22426 22427     9 
22425 22423 22426 22428     9 
22425 22423 22426 22429     9 
22423 22426 22429 22430     9 
22423 22426 22429 22431     9 
22423 22426 22429 22432     9 
22427 22426 22429 22430     9 
22427 22426 22429 22431     9 
22427 22426 22429 22432     9 
22428 22426 22429 22430     9 
22428 22426 22429 22431     9 
22428 22426 22429 22432     9 
22426 22429 22432 22433     9 
22426 22429 22432 22434     9 
22426 22429 22432 22435     9 
22430 22429 22432 22433     9 
22430 22429 22432 22434     9 
22430 22429 22432 22435     9 
22431 22429 22432 22433     9 
22431 22429 22432 22434     9 
22431 22429 22432 22435     9 
22429 22432 22435 22436     9 
22429 22432 22435 22437     9 
22429 22432 22435 22438     9 
22433 22432 22435 22436     9 
22433 22432 22435 22437     9 
22433 22432 22435 22438     9 
22434 22432 22435 22436     9 
22434 22432 22435 22437     9 
22434 22432 22435 22438     9 
22432 22435 22438 22439     9 
22432 22435 22438 22440     9 
22432 22435 22438 22441     9 
22436 22435 22438 22439     9 
22436 22435 22438 22440     9 
22436 22435 22438 22441     9 
22437 22435 22438 22439     9 
22437 22435 22438 22440     9 
22437 22435 22438 22441     9 
22435 22438 22441 22442     9 
22435 22438 22441 22443     9 
22439 22438 22441 22442     9 
22439 22438 22441 22443     9 
22440 22438 22441 22442     9 
22440 22438 22441 22443     9 
22438 22441 22443 22444     9 
22438 22441 22443 22445     9 
22442 22441 22443 22444     9 
22442 22441 22443 22445     9 
22441 22443 22445 22446     9 
22441 22443 22445 22447     9 
22441 22443 22445 22448     9 
22444 22443 22445 22446     9 
22444 22443 22445 22447     9 
22444 22443 22445 22448     9 
22443 22445 22448 22449     9 
22443 22445 22448 22450     9 
22443 22445 22448 22451     9 
22446 22445 22448 22449     9 
22446 22445 22448 22450     9 
22446 22445 22448 22451     9 
22447 22445 22448 22449     9 
22447 22445 22448 22450     9 
22447 22445 22448 22451     9 
22445 22448 22451 22452     9 
22445 22448 22451 22453     9 
22445 22448 22451 22454     9 
22449 22448 22451 22452     9 
22449 22448 22451 22453     9 
22449 22448 22451 22454     9 
22450 22448 22451 22452     9 
22450 22448 22451 22453     9 
22450 22448 22451 22454     9 
22448 22451 22454 22455     9 
22448 22451 22454 22456     9 
22448 22451 22454 22457     9 
22452 22451 22454 22455     9 
22452 22451 22454 22456     9 
22452 22451 22454 22457     9 
22453 22451 22454 22455     9 
22453 22451 22454 22456     9 
22453 22451 22454 22457     9 
22451 22454 22457 22458     9 
22451 22454 22457 22459     9 
22451 22454 22457 22460     9 
22455 22454 22457 22458     9 
22455 22454 22457 22459     9 
22455 22454 22457 22460     9 
22456 22454 22457 22458     9 
22456 22454 22457 22459     9 
22456 22454 22457 22460     9 
22454 22457 22460 22461     9 
22454 22457 22460 22462     9 
22454 22457 22460 22463     9 
22458 22457 22460 22461     9 
22458 22457 22460 22462     9 
22458 22457 22460 22463     9 
22459 22457 22460 22461     9 
22459 22457 22460 22462     9 
22459 22457 22460 22463     9 
22457 22460 22463 22464     9 
22457 22460 22463 22465     9 
22457 22460 22463 22466     9 
22461 22460 22463 22464     9 
22461 22460 22463 22465     9 
22461 22460 22463 22466     9 
22462 22460 22463 22464     9 
22462 22460 22463 22465     9 
22462 22460 22463 22466     9 
22460 22463 22466 22467     9 
22460 22463 22466 22468     9 
22460 22463 22466 22469     9 
22464 22463 22466 22467     9 
22464 22463 22466 22468     9 
22464 22463 22466 22469     9 
22465 22463 22466 22467     9 
22465 22463 22466 22468     9 
22465 22463 22466 22469     9 
22420 22470 22473 22474     9 
22420 22470 22473 22475     9 
22420 22470 22473 22476     9 
22471 22470 22473 22474     9 
22471 22470 22473 22475     9 
22471 22470 22473 22476     9 
22472 22470 22473 22474     9 
22472 22470 22473 22475     9 
22472 22470 22473 22476     9 
22470 22473 22476 22477     9 
22470 22473 22476 22478     9 
22470 22473 22476 22479     9 
22474 22473 22476 22477     9 
22474 22473 22476 22478     9 
22474 22473 22476 22479     9 
22475 22473 22476 22477     9 
22475 22473 22476 22478     9 
22475 22473 22476 22479     9 
22473 22476 22479 22480     9 
22473 22476 22479 22481     9 
22473 22476 22479 22482     9 
22477 22476 22479 22480     9 
22477 22476 22479 22481     9 
22477 22476 22479 22482     9 
22478 22476 22479 22480     9 
22478 22476 22479 22481     9 
22478 22476 22479 22482     9 
22476 22479 22482 22483     9 
22476 22479 22482 22484     9 
22476 22479 22482 22485     9 
22480 22479 22482 22483     9 
22480 22479 22482 22484     9 
22480 22479 22482 22485     9 
22481 22479 22482 22483     9 
22481 22479 22482 22484     9 
22481 22479 22482 22485     9 
22479 22482 22485 22486     9 
22479 22482 22485 22487     9 
22479 22482 22485 22488     9 
22483 22482 22485 22486     9 
22483 22482 22485 22487     9 
22483 22482 22485 22488     9 
22484 22482 22485 22486     9 
22484 22482 22485 22487     9 
22484 22482 22485 22488     9 
22482 22485 22488 22489     9 
22482 22485 22488 22490     9 
22482 22485 22488 22491     9 
22486 22485 22488 22489     9 
22486 22485 22488 22490     9 
22486 22485 22488 22491     9 
22487 22485 22488 22489     9 
22487 22485 22488 22490     9 
22487 22485 22488 22491     9 
22485 22488 22491 22492     9 
22485 22488 22491 22493     9 
22485 22488 22491 22494     9 
22489 22488 22491 22492     9 
22489 22488 22491 22493     9 
22489 22488 22491 22494     9 
22490 22488 22491 22492     9 
22490 22488 22491 22493     9 
22490 22488 22491 22494     9 
22488 22491 22494 22495     9 
22488 22491 22494 22496     9 
22488 22491 22494 22497     9 
22492 22491 22494 22495     9 
22492 22491 22494 22496     9 
22492 22491 22494 22497     9 
22493 22491 22494 22495     9 
22493 22491 22494 22496     9 
22493 22491 22494 22497     9 
22491 22494 22497 22498     9 
22491 22494 22497 22499     9 
22491 22494 22497 22500     9 
22495 22494 22497 22498     9 
22495 22494 22497 22499     9 
22495 22494 22497 22500     9 
22496 22494 22497 22498     9 
22496 22494 22497 22499     9 
22496 22494 22497 22500     9 
22494 22497 22500 22501     9 
22494 22497 22500 22502     9 
22494 22497 22500 22503     9 
22498 22497 22500 22501     9 
22498 22497 22500 22502     9 
22498 22497 22500 22503     9 
22499 22497 22500 22501     9 
22499 22497 22500 22502     9 
22499 22497 22500 22503     9 
22497 22500 22503 22504     9 
22497 22500 22503 22505     9 
22497 22500 22503 22506     9 
22501 22500 22503 22504     9 
22501 22500 22503 22505     9 
22501 22500 22503 22506     9 
22502 22500 22503 22504     9 
22502 22500 22503 22505     9 
22502 22500 22503 22506     9 
22500 22503 22506 22507     9 
22500 22503 22506 22508     9 
22500 22503 22506 22509     9 
22504 22503 22506 22507     9 
22504 22503 22506 22508     9 
22504 22503 22506 22509     9 
22505 22503 22506 22507     9 
22505 22503 22506 22508     9 
22505 22503 22506 22509     9 
22503 22506 22509 22510     9 
22503 22506 22509 22511     9 
22503 22506 22509 22512     9 
22507 22506 22509 22510     9 
22507 22506 22509 22511     9 
22507 22506 22509 22512     9 
22508 22506 22509 22510     9 
22508 22506 22509 22511     9 
22508 22506 22509 22512     9 
22517 22513 22514 22515     9 
22517 22513 22514 22516     9 
22517 22513 22514 22529     9 
22521 22513 22514 22515     9 
22521 22513 22514 22516     9 
22521 22513 22514 22529     9 
22525 22513 22514 22515     9 
22525 22513 22514 22516     9 
22525 22513 22514 22529     9 
22514 22513 22517 22518     9 
22514 22513 22517 22519     9 
22514 22513 22517 22520     9 
22521 22513 22517 22518     9 
22521 22513 22517 22519     9 
22521 22513 22517 22520     9 
22525 22513 22517 22518     9 
22525 22513 22517 22519     9 
22525 22513 22517 22520     9 
22514 22513 22521 22522     9 
22514 22513 22521 22523     9 
22514 22513 22521 22524     9 
22517 22513 22521 22522     9 
22517 22513 22521 22523     9 
22517 22513 22521 22524     9 
22525 22513 22521 22522     9 
22525 22513 22521 22523     9 
22525 22513 22521 22524     9 
22514 22513 22525 22526     9 
22514 22513 22525 22527     9 
22514 22513 22525 22528     9 
22517 22513 22525 22526     9 
22517 22513 22525 22527     9 
22517 22513 22525 22528     9 
22521 22513 22525 22526     9 
22521 22513 22525 22527     9 
22521 22513 22525 22528     9 
22513 22514 22529 22530     9 
22513 22514 22529 22531     9 
22513 22514 22529 22535     9 
22515 22514 22529 22530     9 
22515 22514 22529 22531     9 
22515 22514 22529 22535     9 
22516 22514 22529 22530     9 
22516 22514 22529 22531     9 
22516 22514 22529 22535     9 
22514 22529 22535 22532     9 
22530 22529 22535 22532     9 
22531 22529 22535 22532     9 
22533 22532 22535 22529     9 
22534 22532 22535 22529     9 
22536 22532 22535 22529     9 
22533 22532 22536 22537     9 
22534 22532 22536 22537     9 
22535 22532 22536 22537     9 
22532 22536 22537 22538     9 
22532 22536 22537 22539     9 
22532 22536 22537 22540     9 
22536 22537 22540 22541     9 
22536 22537 22540 22542     9 
22536 22537 22540 22548     9 
22538 22537 22540 22541     9 
22538 22537 22540 22542     9 
22538 22537 22540 22548     9 
22539 22537 22540 22541     9 
22539 22537 22540 22542     9 
22539 22537 22540 22548     9 
22537 22540 22542 22543     9 
22541 22540 22542 22543     9 
22548 22540 22542 22543     9 
22537 22540 22548 22549     9 
22537 22540 22548 22550     9 
22537 22540 22548 22551     9 
22541 22540 22548 22549     9 
22541 22540 22548 22550     9 
22541 22540 22548 22551     9 
22542 22540 22548 22549     9 
22542 22540 22548 22550     9 
22542 22540 22548 22551     9 
22540 22542 22543 22544     9 
22540 22542 22543 22545     9 
22542 22543 22545 22546     9 
22542 22543 22545 22547     9 
22542 22543 22545 22557     9 
22544 22543 22545 22546     9 
22544 22543 22545 22547     9 
22544 22543 22545 22557     9 
22543 22545 22557 22558     9 
22543 22545 22557 22559     9 
22543 22545 22557 22560     9 
22546 22545 22557 22558     9 
22546 22545 22557 22559     9 
22546 22545 22557 22560     9 
22547 22545 22557 22558     9 
22547 22545 22557 22559     9 
22547 22545 22557 22560     9 
22540 22548 22551 22552     9 
22549 22548 22551 22552     9 
22550 22548 22551 22552     9 
22548 22551 22552 22553     9 
22548 22551 22552 22554     9 
22551 22552 22554 22555     9 
22551 22552 22554 22556     9 
22551 22552 22554 22604     9 
22553 22552 22554 22555     9 
22553 22552 22554 22556     9 
22553 22552 22554 22604     9 
22552 22554 22604 22605     9 
22552 22554 22604 22606     9 
22552 22554 22604 22607     9 
22555 22554 22604 22605     9 
22555 22554 22604 22606     9 
22555 22554 22604 22607     9 
22556 22554 22604 22605     9 
22556 22554 22604 22606     9 
22556 22554 22604 22607     9 
22545 22557 22560 22561     9 
22545 22557 22560 22562     9 
22545 22557 22560 22563     9 
22558 22557 22560 22561     9 
22558 22557 22560 22562     9 
22558 22557 22560 22563     9 
22559 22557 22560 22561     9 
22559 22557 22560 22562     9 
22559 22557 22560 22563     9 
22557 22560 22563 22564     9 
22557 22560 22563 22565     9 
22557 22560 22563 22566     9 
22561 22560 22563 22564     9 
22561 22560 22563 22565     9 
22561 22560 22563 22566     9 
22562 22560 22563 22564     9 
22562 22560 22563 22565     9 
22562 22560 22563 22566     9 
22560 22563 22566 22567     9 
22560 22563 22566 22568     9 
22560 22563 22566 22569     9 
22564 22563 22566 22567     9 
22564 22563 22566 22568     9 
22564 22563 22566 22569     9 
22565 22563 22566 22567     9 
22565 22563 22566 22568     9 
22565 22563 22566 22569     9 
22563 22566 22569 22570     9 
22563 22566 22569 22571     9 
22563 22566 22569 22572     9 
22567 22566 22569 22570     9 
22567 22566 22569 22571     9 
22567 22566 22569 22572     9 
22568 22566 22569 22570     9 
22568 22566 22569 22571     9 
22568 22566 22569 22572     9 
22566 22569 22572 22573     9 
22566 22569 22572 22574     9 
22566 22569 22572 22575     9 
22570 22569 22572 22573     9 
22570 22569 22572 22574     9 
22570 22569 22572 22575     9 
22571 22569 22572 22573     9 
22571 22569 22572 22574     9 
22571 22569 22572 22575     9 
22569 22572 22575 22576     9 
22569 22572 22575 22577     9 
22573 22572 22575 22576     9 
22573 22572 22575 22577     9 
22574 22572 22575 22576     9 
22574 22572 22575 22577     9 
22572 22575 22577 22578     9 
22572 22575 22577 22579     9 
22576 22575 22577 22578     9 
22576 22575 22577 22579     9 
22575 22577 22579 22580     9 
22575 22577 22579 22581     9 
22575 22577 22579 22582     9 
22578 22577 22579 22580     9 
22578 22577 22579 22581     9 
22578 22577 22579 22582     9 
22577 22579 22582 22583     9 
22577 22579 22582 22584     9 
22577 22579 22582 22585     9 
22580 22579 22582 22583     9 
22580 22579 22582 22584     9 
22580 22579 22582 22585     9 
22581 22579 22582 22583     9 
22581 22579 22582 22584     9 
22581 22579 22582 22585     9 
22579 22582 22585 22586     9 
22579 22582 22585 22587     9 
22579 22582 22585 22588     9 
22583 22582 22585 22586     9 
22583 22582 22585 22587     9 
22583 22582 22585 22588     9 
22584 22582 22585 22586     9 
22584 22582 22585 22587     9 
22584 22582 22585 22588     9 
22582 22585 22588 22589     9 
22582 22585 22588 22590     9 
22582 22585 22588 22591     9 
22586 22585 22588 22589     9 
22586 22585 22588 22590     9 
22586 22585 22588 22591     9 
22587 22585 22588 22589     9 
22587 22585 22588 22590     9 
22587 22585 22588 22591     9 
22585 22588 22591 22592     9 
22585 22588 22591 22593     9 
22585 22588 22591 22594     9 
22589 22588 22591 22592     9 
22589 22588 22591 22593     9 
22589 22588 22591 22594     9 
22590 22588 22591 22592     9 
22590 22588 22591 22593     9 
22590 22588 22591 22594     9 
22588 22591 22594 22595     9 
22588 22591 22594 22596     9 
22588 22591 22594 22597     9 
22592 22591 22594 22595     9 
22592 22591 22594 22596     9 
22592 22591 22594 22597     9 
22593 22591 22594 22595     9 
22593 22591 22594 22596     9 
22593 22591 22594 22597     9 
22591 22594 22597 22598     9 
22591 22594 22597 22599     9 
22591 22594 22597 22600     9 
22595 22594 22597 22598     9 
22595 22594 22597 22599     9 
22595 22594 22597 22600     9 
22596 22594 22597 22598     9 
22596 22594 22597 22599     9 
22596 22594 22597 22600     9 
22594 22597 22600 22601     9 
22594 22597 22600 22602     9 
22594 22597 22600 22603     9 
22598 22597 22600 22601     9 
22598 22597 22600 22602     9 
22598 22597 22600 22603     9 
22599 22597 22600 22601     9 
22599 22597 22600 22602     9 
22599 22597 22600 22603     9 
22554 22604 22607 22608     9 
22554 22604 22607 22609     9 
22554 22604 22607 22610     9 
22605 22604 22607 22608     9 
22605 22604 22607 22609     9 
22605 22604 22607 22610     9 
22606 22604 22607 22608     9 
22606 22604 22607 22609     9 
22606 22604 22607 22610     9 
22604 22607 22610 22611     9 
22604 22607 22610 22612     9 
22604 22607 22610 22613     9 
22608 22607 22610 22611     9 
22608 22607 22610 22612     9 
22608 22607 22610 22613     9 
22609 22607 22610 22611     9 
22609 22607 22610 22612     9 
22609 22607 22610 22613     9 
22607 22610 22613 22614     9 
22607 22610 22613 22615     9 
22607 22610 22613 22616     9 
22611 22610 22613 22614     9 
22611 22610 22613 22615     9 
22611 22610 22613 22616     9 
22612 22610 22613 22614     9 
22612 22610 22613 22615     9 
22612 22610 22613 22616     9 
22610 22613 22616 22617     9 
22610 22613 22616 22618     9 
22610 22613 22616 22619     9 
22614 22613 22616 22617     9 
22614 22613 22616 22618     9 
22614 22613 22616 22619     9 
22615 22613 22616 22617     9 
22615 22613 22616 22618     9 
22615 22613 22616 22619     9 
22613 22616 22619 22620     9 
22613 22616 22619 22621     9 
22613 22616 22619 22622     9 
22617 22616 22619 22620     9 
22617 22616 22619 22621     9 
22617 22616 22619 22622     9 
22618 22616 22619 22620     9 
22618 22616 22619 22621     9 
22618 22616 22619 22622     9 
22616 22619 22622 22623     9 
22616 22619 22622 22624     9 
22616 22619 22622 22625     9 
22620 22619 22622 22623     9 
22620 22619 22622 22624     9 
22620 22619 22622 22625     9 
22621 22619 22622 22623     9 
22621 22619 22622 22624     9 
22621 22619 22622 22625     9 
22619 22622 22625 22626     9 
22619 22622 22625 22627     9 
22619 22622 22625 22628     9 
22623 22622 22625 22626     9 
22623 22622 22625 22627     9 
22623 22622 22625 22628     9 
22624 22622 22625 22626     9 
22624 22622 22625 22627     9 
22624 22622 22625 22628     9 
22622 22625 22628 22629     9 
22622 22625 22628 22630     9 
22622 22625 22628 22631     9 
22626 22625 22628 22629     9 
22626 22625 22628 22630     9 
22626 22625 22628 22631     9 
22627 22625 22628 22629     9 
22627 22625 22628 22630     9 
22627 22625 22628 22631     9 
22625 22628 22631 22632     9 
22625 22628 22631 22633     9 
22625 22628 22631 22634     9 
22629 22628 22631 22632     9 
22629 22628 22631 22633     9 
22629 22628 22631 22634     9 
22630 22628 22631 22632     9 
22630 22628 22631 22633     9 
22630 22628 22631 22634     9 
22628 22631 22634 22635     9 
22628 22631 22634 22636     9 
22628 22631 22634 22637     9 
22632 22631 22634 22635     9 
22632 22631 22634 22636     9 
22632 22631 22634 22637     9 
22633 22631 22634 22635     9 
22633 22631 22634 22636     9 
22633 22631 22634 22637     9 
22631 22634 22637 22638     9 
22631 22634 22637 22639     9 
22631 22634 22637 22640     9 
22635 22634 22637 22638     9 
22635 22634 22637 22639     9 
22635 22634 22637 22640     9 
22636 22634 22637 22638     9 
22636 22634 22637 22639     9 
22636 22634 22637 22640     9 
22634 22637 22640 22641     9 
22634 22637 22640 22642     9 
22634 22637 22640 22643     9 
22638 22637 22640 22641     9 
22638 22637 22640 22642     9 
22638 22637 22640 22643     9 
22639 22637 22640 22641     9 
22639 22637 22640 22642     9 
22639 22637 22640 22643     9 
22637 22640 22643 22644     9 
22637 22640 22643 22645     9 
22637 22640 22643 22646     9 
22641 22640 22643 22644     9 
22641 22640 22643 22645     9 
22641 22640 22643 22646     9 
22642 22640 22643 22644     9 
22642 22640 22643 22645     9 
22642 22640 22643 22646     9 

[ dihedrals ]
;  ai    aj    ak    al funct            c0            c1            c2            c3
   31    30    33    32     2 
   40    39    42    41     2 
  165   164   167   166     2 
  174   173   176   175     2 
  299   298   301   300     2 
  308   307   310   309     2 
  433   432   435   434     2 
  442   441   444   443     2 
  567   566   569   568     2 
  576   575   578   577     2 
  701   700   703   702     2 
  710   709   712   711     2 
  835   834   837   836     2 
  844   843   846   845     2 
  969   968   971   970     2 
  978   977   980   979     2 
 1103  1102  1105  1104     2 
 1112  1111  1114  1113     2 
 1237  1236  1239  1238     2 
 1246  1245  1248  1247     2 
 1371  1370  1373  1372     2 
 1380  1379  1382  1381     2 
 1505  1504  1507  1506     2 
 1514  1513  1516  1515     2 
 1639  1638  1641  1640     2 
 1648  1647  1650  1649     2 
 1773  1772  1775  1774     2 
 1782  1781  1784  1783     2 
 1907  1906  1909  1908     2 
 1916  1915  1918  1917     2 
 2041  2040  2043  2042     2 
 2050  2049  2052  2051     2 
 2175  2174  2177  2176     2 
 2184  2183  2186  2185     2 
 2309  2308  2311  2310     2 
 2318  2317  2320  2319     2 
 2443  2442  2445  2444     2 
 2452  2451  2454  2453     2 
 2577  2576  2579  2578     2 
 2586  2585  2588  2587     2 
 2711  2710  2713  2712     2 
 2720  2719  2722  2721     2 
 2845  2844  2847  2846     2 
 2854  2853  2856  2855     2 
 2979  2978  2981  2980     2 
 2988  2987  2990  2989     2 
 3113  3112  3115  3114     2 
 3122  3121  3124  3123     2 
 3247  3246  3249  3248     2 
 3256  3255  3258  3257     2 
 3381  3380  3383  3382     2 
 3390  3389  3392  3391     2 
 3515  3514  3517  3516     2 
 3524  3523  3526  3525     2 
 3649  3648  3651  3650     2 
 3658  3657  3660  3659     2 
 3783  3782  3785  3784     2 
 3792  3791  3794  3793     2 
 3917  3916  3919  3918     2 
 3926  3925  3928  3927     2 
 4051  4050  4053  4052     2 
 4060  4059  4062  4061     2 
 4185  4184  4187  4186     2 
 4194  4193  4196  4195     2 
 4319  4318  4321  4320     2 
 4328  4327  4330  4329     2 
 4453  4452  4455  4454     2 
 4462  4461  4464  4463     2 
 4587  4586  4589  4588     2 
 4596  4595  4598  4597     2 
 4721  4720  4723  4722     2 
 4730  4729  4732  4731     2 
 4855  4854  4857  4856     2 
 4864  4863  4866  4865     2 
 4989  4988  4991  4990     2 
 4998  4997  5000  4999     2 
 5123  5122  5125  5124     2 
 5132  5131  5134  5133     2 
 5257  5256  5259  5258     2 
 5266  5265  5268  5267     2 
 5391  5390  5393  5392     2 
 5400  5399  5402  5401     2 
 5525  5524  5527  5526     2 
 5534  5533  5536  5535     2 
 5659  5658  5661  5660     2 
 5668  5667  5670  5669     2 
 5793  5792  5795  5794     2 
 5802  5801  5804  5803     2 
 5927  5926  5929  5928     2 
 5936  5935  5938  5937     2 
 6061  6060  6063  6062     2 
 6070  6069  6072  6071     2 
 6195  6194  6197  6196     2 
 6204  6203  6206  6205     2 
 6329  6328  6331  6330     2 
 6338  6337  6340  6339     2 
 6463  6462  6465  6464     2 
 6472  6471  6474  6473     2 
 6597  6596  6599  6598     2 
 6606  6605  6608  6607     2 
 6731  6730  6733  6732     2 
 6740  6739  6742  6741     2 
 6865  6864  6867  6866     2 
 6874  6873  6876  6875     2 
 6999  6998  7001  7000     2 
 7008  7007  7010  7009     2 
 7133  7132  7135  7134     2 
 7142  7141  7144  7143     2 
 7267  7266  7269  7268     2 
 7276  7275  7278  7277     2 
 7401  7400  7403  7402     2 
 7410  7409  7412  7411     2 
 7535  7534  7537  7536     2 
 7544  7543  7546  7545     2 
 7669  7668  7671  7670     2 
 7678  7677  7680  7679     2 
 7803  7802  7805  7804     2 
 7812  7811  7814  7813     2 
 7937  7936  7939  7938     2 
 7946  7945  7948  7947     2 
 8071  8070  8073  8072     2 
 8080  8079  8082  8081     2 
 8205  8204  8207  8206     2 
 8214  8213  8216  8215     2 
 8339  8338  8341  8340     2 
 8348  8347  8350  8349     2 
 8473  8472  8475  8474     2 
 8482  8481  8484  8483     2 
 8607  8606  8609  8608     2 
 8616  8615  8618  8617     2 
 8741  8740  8743  8742     2 
 8750  8749  8752  8751     2 
 8875  8874  8877  8876     2 
 8884  8883  8886  8885     2 
 9009  9008  9011  9010     2 
 9018  9017  9020  9019     2 
 9143  9142  9145  9144     2 
 9152  9151  9154  9153     2 
 9277  9276  9279  9278     2 
 9286  9285  9288  9287     2 
 9411  9410  9413  9412     2 
 9420  9419  9422  9421     2 
 9545  9544  9547  9546     2 
 9554  9553  9556  9555     2 
 9679  9678  9681  9680     2 
 9688  9687  9690  9689     2 
 9813  9812  9815  9814     2 
 9822  9821  9824  9823     2 
 9947  9946  9949  9948     2 
 9956  9955  9958  9957     2 
10081 10080 10083 10082     2 
10090 10089 10092 10091     2 
10215 10214 10217 10216     2 
10224 10223 10226 10225     2 
10349 10348 10351 10350     2 
10358 10357 10360 10359     2 
10483 10482 10485 10484     2 
10492 10491 10494 10493     2 
10617 10616 10619 10618     2 
10626 10625 10628 10627     2 
10751 10750 10753 10752     2 
10760 10759 10762 10761     2 
10885 10884 10887 10886     2 
10894 10893 10896 10895     2 
11019 11018 11021 11020     2 
11028 11027 11030 11029     2 
11153 11152 11155 11154     2 
11162 11161 11164 11163     2 
11287 11286 11289 11288     2 
11296 11295 11298 11297     2 
11421 11420 11423 11422     2 
11430 11429 11432 11431     2 
11555 11554 11557 11556     2 
11564 11563 11566 11565     2 
11689 11688 11691 11690     2 
11698 11697 11700 11699     2 
11823 11822 11825 11824     2 
11832 11831 11834 11833     2 
11957 11956 11959 11958     2 
11966 11965 11968 11967     2 
12091 12090 12093 12092     2 
12100 12099 12102 12101     2 
12225 12224 12227 12226     2 
12234 12233 12236 12235     2 
12359 12358 12361 12360     2 
12368 12367 12370 12369     2 
12493 12492 12495 12494     2 
12502 12501 12504 12503     2 
12627 12626 12629 12628     2 
12636 12635 12638 12637     2 
12761 12760 12763 12762     2 
12770 12769 12772 12771     2 
12895 12894 12897 12896     2 
12904 12903 12906 12905     2 
13029 13028 13031 13030     2 
13038 13037 13040 13039     2 
13163 13162 13165 13164     2 
13172 13171 13174 13173     2 
13297 13296 13299 13298     2 
13306 13305 13308 13307     2 
13431 13430 13433 13432     2 
13440 13439 13442 13441     2 
13565 13564 13567 13566     2 
13574 13573 13576 13575     2 
13699 13698 13701 13700     2 
13708 13707 13710 13709     2 
13833 13832 13835 13834     2 
13842 13841 13844 13843     2 
13967 13966 13969 13968     2 
13976 13975 13978 13977     2 
14101 14100 14103 14102     2 
14110 14109 14112 14111     2 
14235 14234 14237 14236     2 
14244 14243 14246 14245     2 
14369 14368 14371 14370     2 
14378 14377 14380 14379     2 
14503 14502 14505 14504     2 
14512 14511 14514 14513     2 
14637 14636 14639 14638     2 
14646 14645 14648 14647     2 
14771 14770 14773 14772     2 
14780 14779 14782 14781     2 
14905 14904 14907 14906     2 
14914 14913 14916 14915     2 
15039 15038 15041 15040     2 
15048 15047 15050 15049     2 
15173 15172 15175 15174     2 
15182 15181 15184 15183     2 
15307 15306 15309 15308     2 
15316 15315 15318 15317     2 
15441 15440 15443 15442     2 
15450 15449 15452 15451     2 
15575 15574 15577 15576     2 
15584 15583 15586 15585     2 
15709 15708 15711 15710     2 
15718 15717 15720 15719     2 
15843 15842 15845 15844     2 
15852 15851 15854 15853     2 
15977 15976 15979 15978     2 
15986 15985 15988 15987     2 
16111 16110 16113 16112     2 
16120 16119 16122 16121     2 
16245 16244 16247 16246     2 
16254 16253 16256 16255     2 
16379 16378 16381 16380     2 
16388 16387 16390 16389     2 
16513 16512 16515 16514     2 
16522 16521 16524 16523     2 
16647 16646 16649 16648     2 
16656 16655 16658 16657     2 
16781 16780 16783 16782     2 
16790 16789 16792 16791     2 
16915 16914 16917 16916     2 
16924 16923 16926 16925     2 
17049 17048 17051 17050     2 
17058 17057 17060 17059     2 
17183 17182 17185 17184     2 
17192 17191 17194 17193     2 
17317 17316 17319 17318     2 
17326 17325 17328 17327     2 
17451 17450 17453 17452     2 
17460 17459 17462 17461     2 
17585 17584 17587 17586     2 
17594 17593 17596 17595     2 
17719 17718 17721 17720     2 
17728 17727 17730 17729     2 
17853 17852 17855 17854     2 
17862 17861 17864 17863     2 
17987 17986 17989 17988     2 
17996 17995 17998 17997     2 
18121 18120 18123 18122     2 
18130 18129 18132 18131     2 
18255 18254 18257 18256     2 
18264 18263 18266 18265     2 
18389 18388 18391 18390     2 
18398 18397 18400 18399     2 
18523 18522 18525 18524     2 
18532 18531 18534 18533     2 
18657 18656 18659 18658     2 
18666 18665 18668 18667     2 
18791 18790 18793 18792     2 
18800 18799 18802 18801     2 
18925 18924 18927 18926     2 
18934 18933 18936 18935     2 
19059 19058 19061 19060     2 
19068 19067 19070 19069     2 
19193 19192 19195 19194     2 
19202 19201 19204 19203     2 
19327 19326 19329 19328     2 
19336 19335 19338 19337     2 
19461 19460 19463 19462     2 
19470 19469 19472 19471     2 
19595 19594 19597 19596     2 
19604 19603 19606 19605     2 
19729 19728 19731 19730     2 
19738 19737 19740 19739     2 
19863 19862 19865 19864     2 
19872 19871 19874 19873     2 
19997 19996 19999 19998     2 
20006 20005 20008 20007     2 
20131 20130 20133 20132     2 
20140 20139 20142 20141     2 
20265 20264 20267 20266     2 
20274 20273 20276 20275     2 
20399 20398 20401 20400     2 
20408 20407 20410 20409     2 
20533 20532 20535 20534     2 
20542 20541 20544 20543     2 
20667 20666 20669 20668     2 
20676 20675 20678 20677     2 
20801 20800 20803 20802     2 
20810 20809 20812 20811     2 
20935 20934 20937 20936     2 
20944 20943 20946 20945     2 
21069 21068 21071 21070     2 
21078 21077 21080 21079     2 
21203 21202 21205 21204     2 
21212 21211 21214 21213     2 
21337 21336 21339 21338     2 
21346 21345 21348 21347     2 
21471 21470 21473 21472     2 
21480 21479 21482 21481     2 
21605 21604 21607 21606     2 
21614 21613 21616 21615     2 
21739 21738 21741 21740     2 
21748 21747 21750 21749     2 
21873 21872 21875 21874     2 
21882 21881 21884 21883     2 
22007 22006 22009 22008     2 
22016 22015 22018 22017     2 
22141 22140 22143 22142     2 
22150 22149 22152 22151     2 
22275 22274 22277 22276     2 
22284 22283 22286 22285     2 
22409 22408 22411 22410     2 
22418 22417 22420 22419     2 
22543 22542 22545 22544     2 
22552 22551 22554 22553     2 

; Include Position restraint file
#ifdef POSRES
#include "posre_POPC.itp"
#endif

